Title="TOUGHREACT V3.85omp : flowvector.tec: Liq & Gas Fluxes (kg/s/m^2), Pore Velocities (m/s), & Heat Fluxes (J/s/m2)"
Variables= "X(m)"     "Y(m)"      "Z(m)"     "FluxLiq"   "FluxLiq_X"   "FluxLiq_Y"   "FluxLiq_Z"   "PorVelLiq"  "PorVelLiqX"  "PorVelLiqY"  "PorVelLiqZ"     "FluxGas"   "FluxGas_X"   "FluxGas_Y"   "FluxGas_Z"   "PorVelGas"  "PorVelGasX"  "PorVelGasY"  "PorVelGasZ"    "HeatFlux"  "HeatFlux_X"  "HeatFlux_Y"  "HeatFlux_Z"
Zone T= "0.00000000E+00 sec" I=     399 J=       1 K=       1 F=Point SolutionTime= 0.00000000E+00
      75.0000      40.0000   -4875.0000   5.372516E-06  0.000000E+00  0.000000E+00  5.372516E-06  6.337409E-07  0.000000E+00  0.000000E+00  6.337409E-07  0.000000E+00  0.000000E+00  0.000000E+00  0.000000E+00  0.000000E+00  0.000000E+00  0.000000E+00  0.000000E+00  5.749145E+00  0.000000E+00  0.000000E+00  5.749145E+00
     225.0000      40.0000   -4875.0000   5.364652E-06  0.000000E+00  0.000000E+00  5.364652E-06  6.327999E-07  0.000000E+00  0.000000E+00  6.327999E-07  0.000000E+00  0.000000E+00  0.000000E+00  0.000000E+00  0.000000E+00  0.000000E+00  0.000000E+00  0.000000E+00  5.740971E+00  0.000000E+00  0.000000E+00  5.740971E+00
     375.0000      40.0000   -4875.0000   5.354087E-06  0.000000E+00  0.000000E+00  5.354087E-06  6.315364E-07  0.000000E+00  0.000000E+00  6.315364E-07  0.000000E+00  0.000000E+00  0.000000E+00  0.000000E+00  0.000000E+00  0.000000E+00  0.000000E+00  0.000000E+00  5.729977E+00  0.000000E+00  0.000000E+00  5.729977E+00
     525.0000      40.0000   -4875.0000   5.346823E-06  0.000000E+00  0.000000E+00  5.346823E-06  6.306680E-07  0.000000E+00  0.000000E+00  6.306680E-07  0.000000E+00  0.000000E+00  0.000000E+00  0.000000E+00  0.000000E+00  0.000000E+00  0.000000E+00  0.000000E+00  5.722412E+00  0.000000E+00  0.000000E+00  5.722412E+00
     675.0000      40.0000   -4875.0000   5.346685E-06  0.000000E+00  0.000000E+00  5.346685E-06  6.306520E-07  0.000000E+00  0.000000E+00  6.306520E-07  0.000000E+00  0.000000E+00  0.000000E+00  0.000000E+00  0.000000E+00  0.000000E+00  0.000000E+00  0.000000E+00  5.722261E+00  0.000000E+00  0.000000E+00  5.722261E+00
     825.0000      40.0000   -4875.0000   5.353731E-06  0.000000E+00  0.000000E+00  5.353731E-06  6.314966E-07  0.000000E+00  0.000000E+00  6.314966E-07  0.000000E+00  0.000000E+00  0.000000E+00  0.000000E+00  0.000000E+00  0.000000E+00  0.000000E+00  0.000000E+00  5.729560E+00  0.000000E+00  0.000000E+00  5.729560E+00
     975.0000      40.0000   -4875.0000   5.363393E-06  0.000000E+00  0.000000E+00  5.363393E-06  6.326566E-07  0.000000E+00  0.000000E+00  6.326566E-07  0.000000E+00  0.000000E+00  0.000000E+00  0.000000E+00  0.000000E+00  0.000000E+00  0.000000E+00  0.000000E+00  5.739539E+00  0.000000E+00  0.000000E+00  5.739539E+00
    1125.0000      40.0000   -4875.0000   5.368419E-06  0.000000E+00  0.000000E+00  5.368419E-06  6.332643E-07  0.000000E+00  0.000000E+00  6.332643E-07  0.000000E+00  0.000000E+00  0.000000E+00  0.000000E+00  0.000000E+00  0.000000E+00  0.000000E+00  0.000000E+00  5.744657E+00  0.000000E+00  0.000000E+00  5.744657E+00
    1275.0000      40.0000   -4875.0000   5.363435E-06  0.000000E+00  0.000000E+00  5.363435E-06  6.326762E-07  0.000000E+00  0.000000E+00  6.326762E-07  0.000000E+00  0.000000E+00  0.000000E+00  0.000000E+00  0.000000E+00  0.000000E+00  0.000000E+00  0.000000E+00  5.739335E+00  0.000000E+00  0.000000E+00  5.739335E+00
    1425.0000      40.0000   -4875.0000   5.349094E-06  0.000000E+00  0.000000E+00  5.349094E-06  6.309717E-07  0.000000E+00  0.000000E+00  6.309717E-07  0.000000E+00  0.000000E+00  0.000000E+00  0.000000E+00  0.000000E+00  0.000000E+00  0.000000E+00  0.000000E+00  5.724234E+00  0.000000E+00  0.000000E+00  5.724234E+00
    1575.0000      40.0000   -4875.0000   5.329893E-06  0.000000E+00  0.000000E+00  5.329893E-06  6.286885E-07  0.000000E+00  0.000000E+00  6.286885E-07  0.000000E+00  0.000000E+00  0.000000E+00  0.000000E+00  0.000000E+00  0.000000E+00  0.000000E+00  0.000000E+00  5.704031E+00  0.000000E+00  0.000000E+00  5.704031E+00
    1725.0000      40.0000   -4875.0000   5.310678E-06  0.000000E+00  0.000000E+00  5.310678E-06  6.264040E-07  0.000000E+00  0.000000E+00  6.264040E-07  0.000000E+00  0.000000E+00  0.000000E+00  0.000000E+00  0.000000E+00  0.000000E+00  0.000000E+00  0.000000E+00  5.683814E+00  0.000000E+00  0.000000E+00  5.683814E+00
    1875.0000      40.0000   -4875.0000   5.295566E-06  0.000000E+00  0.000000E+00  5.295566E-06  6.246070E-07  0.000000E+00  0.000000E+00  6.246070E-07  0.000000E+00  0.000000E+00  0.000000E+00  0.000000E+00  0.000000E+00  0.000000E+00  0.000000E+00  0.000000E+00  5.667919E+00  0.000000E+00  0.000000E+00  5.667919E+00
    2025.0000      40.0000   -4875.0000   5.287712E-06  0.000000E+00  0.000000E+00  5.287712E-06  6.236731E-07  0.000000E+00  0.000000E+00  6.236731E-07  0.000000E+00  0.000000E+00  0.000000E+00  0.000000E+00  0.000000E+00  0.000000E+00  0.000000E+00  0.000000E+00  5.659658E+00  0.000000E+00  0.000000E+00  5.659658E+00
    2175.0000      40.0000   -4875.0000   5.288823E-06  0.000000E+00  0.000000E+00  5.288823E-06  6.238064E-07  0.000000E+00  0.000000E+00  6.238064E-07  0.000000E+00  0.000000E+00  0.000000E+00  0.000000E+00  0.000000E+00  0.000000E+00  0.000000E+00  0.000000E+00  5.660805E+00  0.000000E+00  0.000000E+00  5.660805E+00
    2325.0000      40.0000   -4875.0000   5.298210E-06  0.000000E+00  0.000000E+00  5.298210E-06  6.249253E-07  0.000000E+00  0.000000E+00  6.249253E-07  0.000000E+00  0.000000E+00  0.000000E+00  0.000000E+00  0.000000E+00  0.000000E+00  0.000000E+00  0.000000E+00  5.670635E+00  0.000000E+00  0.000000E+00  5.670635E+00
    2475.0000      40.0000   -4875.0000   5.312897E-06  0.000000E+00  0.000000E+00  5.312897E-06  6.266756E-07  0.000000E+00  0.000000E+00  6.266756E-07  0.000000E+00  0.000000E+00  0.000000E+00  0.000000E+00  0.000000E+00  0.000000E+00  0.000000E+00  0.000000E+00  5.686018E+00  0.000000E+00  0.000000E+00  5.686018E+00
    2625.0000      40.0000   -4875.0000   5.328150E-06  0.000000E+00  0.000000E+00  5.328150E-06  6.284941E-07  0.000000E+00  0.000000E+00  6.284941E-07  0.000000E+00  0.000000E+00  0.000000E+00  0.000000E+00  0.000000E+00  0.000000E+00  0.000000E+00  0.000000E+00  5.701979E+00  0.000000E+00  0.000000E+00  5.701979E+00
    2775.0000      40.0000   -4875.0000   5.338152E-06  0.000000E+00  0.000000E+00  5.338152E-06  6.296877E-07  0.000000E+00  0.000000E+00  6.296877E-07  0.000000E+00  0.000000E+00  0.000000E+00  0.000000E+00  0.000000E+00  0.000000E+00  0.000000E+00  0.000000E+00  5.712433E+00  0.000000E+00  0.000000E+00  5.712433E+00
      75.0000      40.0000   -4625.0000   1.076544E-05 -1.223812E-08  0.000000E+00  1.076543E-05  1.267165E-06 -1.443131E-09  0.000000E+00  1.267164E-06  0.000000E+00  0.000000E+00  0.000000E+00  0.000000E+00  0.000000E+00  0.000000E+00  0.000000E+00  0.000000E+00  1.151929E+01 -1.259713E-02  0.000000E+00  1.151929E+01
     225.0000      40.0000   -4625.0000   1.073642E-05 -2.872199E-08  0.000000E+00  1.073638E-05  1.263637E-06 -3.386829E-09  0.000000E+00  1.263632E-06  0.000000E+00  0.000000E+00  0.000000E+00  0.000000E+00  0.000000E+00  0.000000E+00  0.000000E+00  0.000000E+00  1.148929E+01 -2.958230E-02  0.000000E+00  1.148926E+01
     375.0000      40.0000   -4625.0000   1.069966E-05 -2.783485E-08  0.000000E+00  1.069962E-05  1.259172E-06 -3.282089E-09  0.000000E+00  1.259167E-06  0.000000E+00  0.000000E+00  0.000000E+00  0.000000E+00  0.000000E+00  0.000000E+00  0.000000E+00  0.000000E+00  1.145119E+01 -2.868837E-02  0.000000E+00  1.145115E+01
     525.0000      40.0000   -4625.0000   1.067514E-05 -1.159577E-08  0.000000E+00  1.067514E-05  1.256195E-06 -1.367253E-09  0.000000E+00  1.256194E-06  0.000000E+00  0.000000E+00  0.000000E+00  0.000000E+00  0.000000E+00  0.000000E+00  0.000000E+00  0.000000E+00  1.142577E+01 -1.196933E-02  0.000000E+00  1.142576E+01
     675.0000      40.0000   -4625.0000   1.067486E-05  1.062077E-08  0.000000E+00  1.067485E-05  1.256160E-06  1.252297E-09  0.000000E+00  1.256159E-06  0.000000E+00  0.000000E+00  0.000000E+00  0.000000E+00  0.000000E+00  0.000000E+00  0.000000E+00  0.000000E+00  1.142553E+01  1.086875E-02  0.000000E+00  1.142552E+01
     825.0000      40.0000   -4625.0000   1.070095E-05  2.565568E-08  0.000000E+00  1.070092E-05  1.259336E-06  3.025159E-09  0.000000E+00  1.259332E-06  0.000000E+00  0.000000E+00  0.000000E+00  0.000000E+00  0.000000E+00  0.000000E+00  0.000000E+00  0.000000E+00  1.145253E+01  2.624123E-02  0.000000E+00  1.145250E+01
     975.0000      40.0000   -4625.0000   1.073910E-05  2.220679E-08  0.000000E+00  1.073908E-05  1.263991E-06  2.618596E-09  0.000000E+00  1.263989E-06  0.000000E+00  0.000000E+00  0.000000E+00  0.000000E+00  0.000000E+00  0.000000E+00  0.000000E+00  0.000000E+00  1.149187E+01  2.255009E-02  0.000000E+00  1.149185E+01
    1125.0000      40.0000   -4625.0000   1.076301E-05 -8.714544E-10  0.000000E+00  1.076301E-05  1.266932E-06 -1.027863E-10  0.000000E+00  1.266932E-06  0.000000E+00  0.000000E+00  0.000000E+00  0.000000E+00  0.000000E+00  0.000000E+00  0.000000E+00  0.000000E+00  1.151636E+01 -1.338573E-03  0.000000E+00  1.151636E+01
    1275.0000      40.0000   -4625.0000   1.075152E-05 -3.133745E-08  0.000000E+00  1.075147E-05  1.265574E-06 -3.695430E-09  0.000000E+00  1.265568E-06  0.000000E+00  0.000000E+00  0.000000E+00  0.000000E+00  0.000000E+00  0.000000E+00  0.000000E+00  0.000000E+00  1.150420E+01 -3.285366E-02  0.000000E+00  1.150415E+01
    1425.0000      40.0000   -4625.0000   1.071124E-05 -5.384667E-08  0.000000E+00  1.071110E-05  1.260730E-06 -6.349572E-09  0.000000E+00  1.260714E-06  0.000000E+00  0.000000E+00  0.000000E+00  0.000000E+00  0.000000E+00  0.000000E+00  0.000000E+00  0.000000E+00  1.146204E+01 -5.620115E-02  0.000000E+00  1.146190E+01
    1575.0000      40.0000   -4625.0000   1.065999E-05 -6.161017E-08  0.000000E+00  1.065981E-05  1.254568E-06 -7.264657E-09  0.000000E+00  1.254547E-06  0.000000E+00  0.000000E+00  0.000000E+00  0.000000E+00  0.000000E+00  0.000000E+00  0.000000E+00  0.000000E+00  1.140826E+01 -6.426971E-02  0.000000E+00  1.140808E+01
    1725.0000      40.0000   -4625.0000   1.061050E-05 -5.502611E-08  0.000000E+00  1.061036E-05  1.248619E-06 -6.487957E-09  0.000000E+00  1.248602E-06  0.000000E+00  0.000000E+00  0.000000E+00  0.000000E+00  0.000000E+00  0.000000E+00  0.000000E+00  0.000000E+00  1.135628E+01 -5.738437E-02  0.000000E+00  1.135614E+01
    1875.0000      40.0000   -4625.0000   1.057181E-05 -3.679674E-08  0.000000E+00  1.057175E-05  1.243965E-06 -4.338403E-09  0.000000E+00  1.243957E-06  0.000000E+00  0.000000E+00  0.000000E+00  0.000000E+00  0.000000E+00  0.000000E+00  0.000000E+00  0.000000E+00  1.131569E+01 -3.836290E-02  0.000000E+00  1.131563E+01
    2025.0000      40.0000   -4625.0000   1.055162E-05 -1.088144E-08  0.000000E+00  1.055161E-05  1.241534E-06 -1.282912E-09  0.000000E+00  1.241533E-06  0.000000E+00  0.000000E+00  0.000000E+00  0.000000E+00  0.000000E+00  0.000000E+00  0.000000E+00  0.000000E+00  1.129456E+01 -1.137953E-02  0.000000E+00  1.129455E+01
    2175.0000      40.0000   -4625.0000   1.055571E-05  1.657340E-08  0.000000E+00  1.055570E-05  1.242031E-06  1.954011E-09  0.000000E+00  1.242029E-06  0.000000E+00  0.000000E+00  0.000000E+00  0.000000E+00  0.000000E+00  0.000000E+00  0.000000E+00  0.000000E+00  1.129881E+01  1.716570E-02  0.000000E+00  1.129880E+01
    2325.0000      40.0000   -4625.0000   1.058247E-05  3.815663E-08  0.000000E+00  1.058240E-05  1.245262E-06  4.498824E-09  0.000000E+00  1.245254E-06  0.000000E+00  0.000000E+00  0.000000E+00  0.000000E+00  0.000000E+00  0.000000E+00  0.000000E+00  0.000000E+00  1.132678E+01  3.959183E-02  0.000000E+00  1.132671E+01
    2475.0000      40.0000   -4625.0000   1.062449E-05  4.741711E-08  0.000000E+00  1.062438E-05  1.250335E-06  5.590954E-09  0.000000E+00  1.250323E-06  0.000000E+00  0.000000E+00  0.000000E+00  0.000000E+00  0.000000E+00  0.000000E+00  0.000000E+00  0.000000E+00  1.137071E+01  4.918891E-02  0.000000E+00  1.137061E+01
    2625.0000      40.0000   -4625.0000   1.067030E-05  3.990785E-08  0.000000E+00  1.067023E-05  1.255873E-06  4.705781E-09  0.000000E+00  1.255864E-06  0.000000E+00  0.000000E+00  0.000000E+00  0.000000E+00  0.000000E+00  0.000000E+00  0.000000E+00  0.000000E+00  1.141851E+01  4.136168E-02  0.000000E+00  1.141844E+01
    2775.0000      40.0000   -4625.0000   1.070261E-05  1.577600E-08  0.000000E+00  1.070260E-05  1.259785E-06  1.860307E-09  0.000000E+00  1.259784E-06  0.000000E+00  0.000000E+00  0.000000E+00  0.000000E+00  0.000000E+00  0.000000E+00  0.000000E+00  0.000000E+00  1.145211E+01  1.633782E-02  0.000000E+00  1.145210E+01
      75.0000      40.0000   -4375.0000   1.085118E-05 -3.917152E-08  0.000000E+00  1.085111E-05  1.260015E-06 -4.581653E-09  0.000000E+00  1.260007E-06  0.000000E+00  0.000000E+00  0.000000E+00  0.000000E+00  0.000000E+00  0.000000E+00  0.000000E+00  0.000000E+00  1.160302E+01 -3.760961E-02  0.000000E+00  1.160296E+01
     225.0000      40.0000   -4375.0000   1.076151E-05 -8.895379E-08  0.000000E+00  1.076114E-05  1.248998E-06 -1.040257E-08  0.000000E+00  1.248955E-06  0.000000E+00  0.000000E+00  0.000000E+00  0.000000E+00  0.000000E+00  0.000000E+00  0.000000E+00  0.000000E+00  1.151403E+01 -8.550685E-02  0.000000E+00  1.151371E+01
     375.0000      40.0000   -4375.0000   1.066366E-05 -8.293110E-08  0.000000E+00  1.066334E-05  1.236981E-06 -9.695837E-09  0.000000E+00  1.236943E-06  0.000000E+00  0.000000E+00  0.000000E+00  0.000000E+00  0.000000E+00  0.000000E+00  0.000000E+00  0.000000E+00  1.141593E+01 -7.977557E-02  0.000000E+00  1.141565E+01
     525.0000      40.0000   -4375.0000   1.060200E-05 -3.349384E-08  0.000000E+00  1.060195E-05  1.229403E-06 -3.915242E-09  0.000000E+00  1.229397E-06  0.000000E+00  0.000000E+00  0.000000E+00  0.000000E+00  0.000000E+00  0.000000E+00  0.000000E+00  0.000000E+00  1.135408E+01 -3.215647E-02  0.000000E+00  1.135403E+01
     675.0000      40.0000   -4375.0000   1.059805E-05  3.431637E-08  0.000000E+00  1.059799E-05  1.228896E-06  4.011438E-09  0.000000E+00  1.228890E-06  0.000000E+00  0.000000E+00  0.000000E+00  0.000000E+00  0.000000E+00  0.000000E+00  0.000000E+00  0.000000E+00  1.135091E+01  3.283480E-02  0.000000E+00  1.135087E+01
     825.0000      40.0000   -4375.0000   1.066911E-05  8.468809E-08  0.000000E+00  1.066877E-05  1.237626E-06  9.901623E-09  0.000000E+00  1.237586E-06  0.000000E+00  0.000000E+00  0.000000E+00  0.000000E+00  0.000000E+00  0.000000E+00  0.000000E+00  0.000000E+00  1.142218E+01  8.061502E-02  0.000000E+00  1.142190E+01
     975.0000      40.0000   -4375.0000   1.078524E-05  7.990702E-08  0.000000E+00  1.078494E-05  1.251938E-06  9.345165E-09  0.000000E+00  1.251903E-06  0.000000E+00  0.000000E+00  0.000000E+00  0.000000E+00  0.000000E+00  0.000000E+00  0.000000E+00  0.000000E+00  1.153770E+01  7.530635E-02  0.000000E+00  1.153745E+01
    1125.0000      40.0000   -4375.0000   1.086997E-05  1.129234E-08  0.000000E+00  1.086997E-05  1.262454E-06  1.320628E-09  0.000000E+00  1.262453E-06  0.000000E+00  0.000000E+00  0.000000E+00  0.000000E+00  0.000000E+00  0.000000E+00  0.000000E+00  0.000000E+00  1.162135E+01  8.839310E-03  0.000000E+00  1.162135E+01
    1275.0000      40.0000   -4375.0000   1.084292E-05 -7.711662E-08  0.000000E+00  1.084264E-05  1.259240E-06 -9.021259E-09  0.000000E+00  1.259208E-06  0.000000E+00  0.000000E+00  0.000000E+00  0.000000E+00  0.000000E+00  0.000000E+00  0.000000E+00  0.000000E+00  1.159465E+01 -7.678795E-02  0.000000E+00  1.159440E+01
    1425.0000      40.0000   -4375.0000   1.075080E-05 -1.326399E-07  0.000000E+00  1.074999E-05  1.248043E-06 -1.551358E-08  0.000000E+00  1.247947E-06  0.000000E+00  0.000000E+00  0.000000E+00  0.000000E+00  0.000000E+00  0.000000E+00  0.000000E+00  0.000000E+00  1.150172E+01 -1.310294E-01  0.000000E+00  1.150097E+01
    1575.0000      40.0000   -4375.0000   1.065624E-05 -1.454678E-07  0.000000E+00  1.065525E-05  1.236541E-06 -1.700934E-08  0.000000E+00  1.236424E-06  0.000000E+00  0.000000E+00  0.000000E+00  0.000000E+00  0.000000E+00  0.000000E+00  0.000000E+00  0.000000E+00  1.140440E+01 -1.436523E-01  0.000000E+00  1.140350E+01
    1725.0000      40.0000   -4375.0000   1.057353E-05 -1.267609E-07  0.000000E+00  1.057277E-05  1.226465E-06 -1.481799E-08  0.000000E+00  1.226376E-06  0.000000E+00  0.000000E+00  0.000000E+00  0.000000E+00  0.000000E+00  0.000000E+00  0.000000E+00  0.000000E+00  1.131884E+01 -1.249973E-01  0.000000E+00  1.131815E+01
    1875.0000      40.0000   -4375.0000   1.050824E-05 -8.412837E-08  0.000000E+00  1.050790E-05  1.218490E-06 -9.832280E-09  0.000000E+00  1.218451E-06  0.000000E+00  0.000000E+00  0.000000E+00  0.000000E+00  0.000000E+00  0.000000E+00  0.000000E+00  0.000000E+00  1.125178E+01 -8.273704E-02  0.000000E+00  1.125147E+01
    2025.0000      40.0000   -4375.0000   1.047089E-05 -2.328473E-08  0.000000E+00  1.047087E-05  1.213914E-06 -2.721040E-09  0.000000E+00  1.213911E-06  0.000000E+00  0.000000E+00  0.000000E+00  0.000000E+00  0.000000E+00  0.000000E+00  0.000000E+00  0.000000E+00  1.121415E+01 -2.297039E-02  0.000000E+00  1.121412E+01
    2175.0000      40.0000   -4375.0000   1.048071E-05  4.275604E-08  0.000000E+00  1.048062E-05  1.215118E-06  4.996670E-09  0.000000E+00  1.215108E-06  0.000000E+00  0.000000E+00  0.000000E+00  0.000000E+00  0.000000E+00  0.000000E+00  0.000000E+00  0.000000E+00  1.122411E+01  4.160345E-02  0.000000E+00  1.122403E+01
    2325.0000      40.0000   -4375.0000   1.053292E-05  9.616949E-08  0.000000E+00  1.053248E-05  1.221510E-06  1.124071E-08  0.000000E+00  1.221459E-06  0.000000E+00  0.000000E+00  0.000000E+00  0.000000E+00  0.000000E+00  0.000000E+00  0.000000E+00  0.000000E+00  1.127739E+01  9.386164E-02  0.000000E+00  1.127700E+01
    2475.0000      40.0000   -4375.0000   1.061517E-05  1.228122E-07  0.000000E+00  1.061446E-05  1.231571E-06  1.435868E-08  0.000000E+00  1.231487E-06  0.000000E+00  0.000000E+00  0.000000E+00  0.000000E+00  0.000000E+00  0.000000E+00  0.000000E+00  0.000000E+00  1.136168E+01  1.198211E-01  0.000000E+00  1.136105E+01
    2625.0000      40.0000   -4375.0000   1.071659E-05  1.087852E-07  0.000000E+00  1.071604E-05  1.243984E-06  1.272234E-08  0.000000E+00  1.243918E-06  0.000000E+00  0.000000E+00  0.000000E+00  0.000000E+00  0.000000E+00  0.000000E+00  0.000000E+00  0.000000E+00  1.146473E+01  1.058953E-01  0.000000E+00  1.146425E+01
    2775.0000      40.0000   -4375.0000   1.080369E-05  4.482577E-08  0.000000E+00  1.080360E-05  1.254648E-06  5.243291E-09  0.000000E+00  1.254638E-06  0.000000E+00  0.000000E+00  0.000000E+00  0.000000E+00  0.000000E+00  0.000000E+00  0.000000E+00  0.000000E+00  1.155199E+01  4.354772E-02  0.000000E+00  1.155191E+01
      75.0000      40.0000   -4125.0000   1.107874E-05 -9.715153E-08  0.000000E+00  1.107832E-05  1.224300E-06 -1.094902E-08  0.000000E+00  1.224251E-06  0.000000E+00  0.000000E+00  0.000000E+00  0.000000E+00  0.000000E+00  0.000000E+00  0.000000E+00  0.000000E+00  1.178208E+01 -6.973611E-02  0.000000E+00  1.178187E+01
     225.0000      40.0000   -4125.0000   1.079639E-05 -2.036858E-07  0.000000E+00  1.079446E-05  1.191407E-06 -2.293705E-08  0.000000E+00  1.191186E-06  0.000000E+00  0.000000E+00  0.000000E+00  0.000000E+00  0.000000E+00  0.000000E+00  0.000000E+00  0.000000E+00  1.154305E+01 -1.462299E-01  0.000000E+00  1.154212E+01
     375.0000      40.0000   -4125.0000   1.057019E-05 -1.729589E-07  0.000000E+00  1.056877E-05  1.164854E-06 -1.945298E-08  0.000000E+00  1.164692E-06  0.000000E+00  0.000000E+00  0.000000E+00  0.000000E+00  0.000000E+00  0.000000E+00  0.000000E+00  0.000000E+00  1.134069E+01 -1.236256E-01  0.000000E+00  1.134001E+01
     525.0000      40.0000   -4125.0000   1.044113E-05 -6.902566E-08  0.000000E+00  1.044091E-05  1.149658E-06 -7.757081E-09  0.000000E+00  1.149632E-06  0.000000E+00  0.000000E+00  0.000000E+00  0.000000E+00  0.000000E+00  0.000000E+00  0.000000E+00  0.000000E+00  1.122388E+01 -4.770989E-02  0.000000E+00  1.122378E+01
     675.0000      40.0000   -4125.0000   1.041123E-05  7.200076E-08  0.000000E+00  1.041098E-05  1.146143E-06  8.091124E-09  0.000000E+00  1.146114E-06  0.000000E+00  0.000000E+00  0.000000E+00  0.000000E+00  0.000000E+00  0.000000E+00  0.000000E+00  0.000000E+00  1.120673E+01  5.200518E-02  0.000000E+00  1.120661E+01
     825.0000      40.0000   -4125.0000   1.057116E-05  1.934702E-07  0.000000E+00  1.056938E-05  1.164871E-06  2.176224E-08  0.000000E+00  1.164667E-06  0.000000E+00  0.000000E+00  0.000000E+00  0.000000E+00  0.000000E+00  0.000000E+00  0.000000E+00  0.000000E+00  1.134893E+01  1.350394E-01  0.000000E+00  1.134813E+01
     975.0000      40.0000   -4125.0000   1.088386E-05  1.996327E-07  0.000000E+00  1.088203E-05  1.201495E-06  2.248589E-08  0.000000E+00  1.201285E-06  0.000000E+00  0.000000E+00  0.000000E+00  0.000000E+00  0.000000E+00  0.000000E+00  0.000000E+00  0.000000E+00  1.161874E+01  1.363174E-01  0.000000E+00  1.161794E+01
    1125.0000      40.0000   -4125.0000   1.115664E-05  3.803396E-08  0.000000E+00  1.115657E-05  1.233653E-06  4.285386E-09  0.000000E+00  1.233645E-06  0.000000E+00  0.000000E+00  0.000000E+00  0.000000E+00  0.000000E+00  0.000000E+00  0.000000E+00  0.000000E+00  1.184817E+01  1.840952E-02  0.000000E+00  1.184815E+01
    1275.0000      40.0000   -4125.0000   1.103746E-05 -1.616990E-07  0.000000E+00  1.103627E-05  1.220112E-06 -1.823576E-08  0.000000E+00  1.219976E-06  0.000000E+00  0.000000E+00  0.000000E+00  0.000000E+00  0.000000E+00  0.000000E+00  0.000000E+00  0.000000E+00  1.175495E+01 -1.279616E-01  0.000000E+00  1.175426E+01
    1425.0000      40.0000   -4125.0000   1.079013E-05 -2.447767E-07  0.000000E+00  1.078736E-05  1.191480E-06 -2.758299E-08  0.000000E+00  1.191160E-06  0.000000E+00  0.000000E+00  0.000000E+00  0.000000E+00  0.000000E+00  0.000000E+00  0.000000E+00  0.000000E+00  1.153862E+01 -1.912742E-01  0.000000E+00  1.153703E+01
    1575.0000      40.0000   -4125.0000   1.062835E-05 -2.366514E-07  0.000000E+00  1.062571E-05  1.172533E-06 -2.663880E-08  0.000000E+00  1.172231E-06  0.000000E+00  0.000000E+00  0.000000E+00  0.000000E+00  0.000000E+00  0.000000E+00  0.000000E+00  0.000000E+00  1.138014E+01 -1.853720E-01  0.000000E+00  1.137863E+01
    1725.0000      40.0000   -4125.0000   1.050479E-05 -1.957584E-07  0.000000E+00  1.050297E-05  1.157944E-06 -2.201427E-08  0.000000E+00  1.157735E-06  0.000000E+00  0.000000E+00  0.000000E+00  0.000000E+00  0.000000E+00  0.000000E+00  0.000000E+00  0.000000E+00  1.125664E+01 -1.515867E-01  0.000000E+00  1.125562E+01
    1875.0000      40.0000   -4125.0000   1.039944E-05 -1.309416E-07  0.000000E+00  1.039862E-05  1.145478E-06 -1.471376E-08  0.000000E+00  1.145384E-06  0.000000E+00  0.000000E+00  0.000000E+00  0.000000E+00  0.000000E+00  0.000000E+00  0.000000E+00  0.000000E+00  1.115628E+01 -9.894259E-02  0.000000E+00  1.115584E+01
    2025.0000      40.0000   -4125.0000   1.031987E-05 -3.558304E-08  0.000000E+00  1.031981E-05  1.136105E-06 -3.996817E-09  0.000000E+00  1.136098E-06  0.000000E+00  0.000000E+00  0.000000E+00  0.000000E+00  0.000000E+00  0.000000E+00  0.000000E+00  0.000000E+00  1.108942E+01 -2.648556E-02  0.000000E+00  1.108939E+01
    2175.0000      40.0000   -4125.0000   1.034148E-05  7.264807E-08  0.000000E+00  1.034122E-05  1.138643E-06  8.161008E-09  0.000000E+00  1.138614E-06  0.000000E+00  0.000000E+00  0.000000E+00  0.000000E+00  0.000000E+00  0.000000E+00  0.000000E+00  0.000000E+00  1.110765E+01  5.369157E-02  0.000000E+00  1.110752E+01
    2325.0000      40.0000   -4125.0000   1.043532E-05  1.619206E-07  0.000000E+00  1.043407E-05  1.149719E-06  1.820127E-08  0.000000E+00  1.149575E-06  0.000000E+00  0.000000E+00  0.000000E+00  0.000000E+00  0.000000E+00  0.000000E+00  0.000000E+00  0.000000E+00  1.119431E+01  1.213488E-01  0.000000E+00  1.119366E+01
    2475.0000      40.0000   -4125.0000   1.057348E-05  2.202926E-07  0.000000E+00  1.057118E-05  1.166036E-06  2.478935E-08  0.000000E+00  1.165772E-06  0.000000E+00  0.000000E+00  0.000000E+00  0.000000E+00  0.000000E+00  0.000000E+00  0.000000E+00  0.000000E+00  1.132864E+01  1.655702E-01  0.000000E+00  1.132743E+01
    2625.0000      40.0000   -4125.0000   1.078304E-05  2.214506E-07  0.000000E+00  1.078077E-05  1.190644E-06  2.495021E-08  0.000000E+00  1.190383E-06  0.000000E+00  0.000000E+00  0.000000E+00  0.000000E+00  0.000000E+00  0.000000E+00  0.000000E+00  0.000000E+00  1.152244E+01  1.654681E-01  0.000000E+00  1.152125E+01
    2775.0000      40.0000   -4125.0000   1.104689E-05  1.008741E-07  0.000000E+00  1.104643E-05  1.221284E-06  1.137385E-08  0.000000E+00  1.221231E-06  0.000000E+00  0.000000E+00  0.000000E+00  0.000000E+00  0.000000E+00  0.000000E+00  0.000000E+00  0.000000E+00  1.174978E+01  7.503299E-02  0.000000E+00  1.174954E+01
      75.0000      40.0000   -3875.0000   1.450375E-04 -6.960293E-05  0.000000E+00  1.272451E-04  1.240767E-06 -3.405723E-07  0.000000E+00  1.193110E-06  0.000000E+00  0.000000E+00  0.000000E+00  0.000000E+00  0.000000E+00  0.000000E+00  0.000000E+00  0.000000E+00  4.891722E+01 -1.972070E+01  0.000000E+00  4.476593E+01
     225.0000      40.0000   -3875.0000   1.259440E-04 -1.253424E-04  0.000000E+00 -1.229571E-05  7.823748E-07 -6.123247E-07  0.000000E+00  4.869998E-07  0.000000E+00  0.000000E+00  0.000000E+00  0.000000E+00  0.000000E+00  0.000000E+00  0.000000E+00  0.000000E+00  3.412082E+01 -3.402695E+01  0.000000E+00  2.529295E+00
     375.0000      40.0000   -3875.0000   9.160391E-05 -8.558762E-05  0.000000E+00 -3.265019E-05  5.584677E-07 -4.169286E-07  0.000000E+00  3.715597E-07  0.000000E+00  0.000000E+00  0.000000E+00  0.000000E+00  0.000000E+00  0.000000E+00  0.000000E+00  0.000000E+00  2.150404E+01 -2.149651E+01  0.000000E+00 -5.688861E-01
     525.0000      40.0000   -3875.0000   5.041470E-05 -2.857492E-05  0.000000E+00 -4.153451E-05  3.484961E-07 -1.389914E-07  0.000000E+00  3.195793E-07  0.000000E+00  0.000000E+00  0.000000E+00  0.000000E+00  0.000000E+00  0.000000E+00  0.000000E+00  0.000000E+00  7.000097E+00 -6.861659E+00  0.000000E+00 -1.385278E+00
     675.0000      40.0000   -3875.0000   5.937570E-05  3.671431E-05  0.000000E+00 -4.666405E-05  3.421714E-07  1.784656E-07  0.000000E+00  2.919440E-07  0.000000E+00  0.000000E+00  0.000000E+00  0.000000E+00  0.000000E+00  0.000000E+00  0.000000E+00  0.000000E+00  8.859180E+00  8.601271E+00  0.000000E+00 -2.122078E+00
     825.0000      40.0000   -3875.0000   1.041385E-04  9.811754E-05  0.000000E+00 -3.489675E-05  5.984996E-07  4.779710E-07  0.000000E+00  3.602020E-07  0.000000E+00  0.000000E+00  0.000000E+00  0.000000E+00  0.000000E+00  0.000000E+00  0.000000E+00  0.000000E+00  2.412933E+01  2.409511E+01  0.000000E+00 -1.284632E+00
     975.0000      40.0000   -3875.0000   1.147262E-04  1.068405E-04  0.000000E+00  4.179966E-05  9.202932E-07  5.220788E-07  0.000000E+00  7.578742E-07  0.000000E+00  0.000000E+00  0.000000E+00  0.000000E+00  0.000000E+00  0.000000E+00  0.000000E+00  0.000000E+00  3.314170E+01  2.869706E+01  0.000000E+00  1.657863E+01
    1125.0000      40.0000   -3875.0000   1.742856E-04 -9.277653E-06  0.000000E+00  1.740385E-04  1.431564E-06 -4.583284E-08  0.000000E+00  1.430831E-06  0.000000E+00  0.000000E+00  0.000000E+00  0.000000E+00  0.000000E+00  0.000000E+00  0.000000E+00  0.000000E+00  6.190875E+01 -4.115630E+00  0.000000E+00  6.177179E+01
    1275.0000      40.0000   -3875.0000   1.695651E-04 -1.488808E-04  0.000000E+00  8.115920E-05  1.208051E-06 -7.294243E-07  0.000000E+00  9.629783E-07  0.000000E+00  0.000000E+00  0.000000E+00  0.000000E+00  0.000000E+00  0.000000E+00  0.000000E+00  0.000000E+00  5.407829E+01 -4.492913E+01  0.000000E+00  3.009708E+01
    1425.0000      40.0000   -3875.0000   1.764303E-04 -1.758546E-04  0.000000E+00 -1.424073E-05  9.835898E-07 -8.599258E-07  0.000000E+00  4.774688E-07  0.000000E+00  0.000000E+00  0.000000E+00  0.000000E+00  0.000000E+00  0.000000E+00  0.000000E+00  0.000000E+00  5.050595E+01 -5.044444E+01  0.000000E+00  2.491914E+00
    1575.0000      40.0000   -3875.0000   1.441704E-04 -1.428675E-04  0.000000E+00 -1.933833E-05  8.255958E-07 -6.972900E-07  0.000000E+00  4.420351E-07  0.000000E+00  0.000000E+00  0.000000E+00  0.000000E+00  0.000000E+00  0.000000E+00  0.000000E+00  0.000000E+00  3.935812E+01 -3.931399E+01  0.000000E+00  1.863186E+00
    1725.0000      40.0000   -3875.0000   1.076616E-04 -1.053694E-04  0.000000E+00 -2.209796E-05  6.641022E-07 -5.136065E-07  0.000000E+00  4.209990E-07  0.000000E+00  0.000000E+00  0.000000E+00  0.000000E+00  0.000000E+00  0.000000E+00  0.000000E+00  0.000000E+00  2.790514E+01 -2.785800E+01  0.000000E+00  1.621430E+00
    1875.0000      40.0000   -3875.0000   6.902507E-05 -6.373769E-05  0.000000E+00 -2.649467E-05  5.006327E-07 -3.103225E-07  0.000000E+00  3.928525E-07  0.000000E+00  0.000000E+00  0.000000E+00  0.000000E+00  0.000000E+00  0.000000E+00  0.000000E+00  0.000000E+00  1.619555E+01 -1.615165E+01  0.000000E+00  1.191710E+00
    2025.0000      40.0000   -3875.0000   3.609640E-05 -1.612999E-05  0.000000E+00 -3.229200E-05  3.674236E-07 -7.847759E-08  0.000000E+00  3.589448E-07  0.000000E+00  0.000000E+00  0.000000E+00  0.000000E+00  0.000000E+00  0.000000E+00  0.000000E+00  0.000000E+00  3.999746E+00 -3.953983E+00  0.000000E+00  6.033130E-01
    2175.0000      40.0000   -3875.0000   4.629596E-05  3.423369E-05  0.000000E+00 -3.116682E-05  4.020887E-07  1.665658E-07  0.000000E+00  3.659661E-07  0.000000E+00  0.000000E+00  0.000000E+00  0.000000E+00  0.000000E+00  0.000000E+00  0.000000E+00  0.000000E+00  8.523736E+00  8.493809E+00  0.000000E+00  7.136409E-01