Title="TOUGHREACT V3.85omp : Mineral Saturation Index (log[Q/K])"
Variables= "X(m)"   "Y(m)"   "Z(m)"       "T(C)"      "calcite"     "dolomite"
Zone T= "1.57788000E+10 sec" I=     399 J=       1 K=       1 F=Point SolutionTime= 1.57788000E+10
      75.0000      40.0000   -4875.0000    244.375  7.033217E-05  1.840701E-04
     225.0000      40.0000   -4875.0000    244.375  7.033217E-05  1.840701E-04
     375.0000      40.0000   -4875.0000    244.375  7.033217E-05  1.840701E-04
     525.0000      40.0000   -4875.0000    244.375  7.033217E-05  1.840701E-04
     675.0000      40.0000   -4875.0000    244.375  7.033217E-05  1.840701E-04
     825.0000      40.0000   -4875.0000    244.375  7.033217E-05  1.840701E-04
     975.0000      40.0000   -4875.0000    244.375  7.033217E-05  1.840701E-04
    1125.0000      40.0000   -4875.0000    244.375  7.033217E-05  1.840701E-04
    1275.0000      40.0000   -4875.0000    244.375  7.033217E-05  1.840701E-04
    1425.0000      40.0000   -4875.0000    244.375  7.033217E-05  1.840701E-04
    1575.0000      40.0000   -4875.0000    244.375  7.033217E-05  1.840701E-04
    1725.0000      40.0000   -4875.0000    244.375  7.033217E-05  1.840701E-04
    1875.0000      40.0000   -4875.0000    244.375  7.033217E-05  1.840701E-04
    2025.0000      40.0000   -4875.0000    244.375  7.033217E-05  1.840701E-04
    2175.0000      40.0000   -4875.0000    244.375  7.033217E-05  1.840701E-04
    2325.0000      40.0000   -4875.0000    244.375  7.033217E-05  1.840701E-04
    2475.0000      40.0000   -4875.0000    244.375  7.033217E-05  1.840701E-04
    2625.0000      40.0000   -4875.0000    244.375  7.033217E-05  1.840701E-04
    2775.0000      40.0000   -4875.0000    244.375  7.033217E-05  1.840701E-04
      75.0000      40.0000   -4625.0000    242.749 -5.464251E-11 -4.867415E-03
     225.0000      40.0000   -4625.0000    242.719 -5.453149E-11 -4.957408E-03
     375.0000      40.0000   -4625.0000    242.680 -5.438672E-11 -5.073707E-03
     525.0000      40.0000   -4625.0000    242.654 -5.428991E-11 -5.151776E-03
     675.0000      40.0000   -4625.0000    242.655 -5.429257E-11 -5.150075E-03
     825.0000      40.0000   -4625.0000    242.685 -5.440715E-11 -5.058870E-03
     975.0000      40.0000   -4625.0000    242.731 -5.457679E-11 -4.922079E-03
    1125.0000      40.0000   -4625.0000    242.764 -5.470113E-11 -4.821264E-03
    1275.0000      40.0000   -4625.0000    242.764 -5.470113E-11 -4.821712E-03
    1425.0000      40.0000   -4625.0000    242.735 -5.459411E-11 -4.907869E-03
    1575.0000      40.0000   -4625.0000    242.695 -5.444178E-11 -5.029814E-03
    1725.0000      40.0000   -4625.0000    242.654 -5.428857E-11 -5.151973E-03
    1875.0000      40.0000   -4625.0000    242.622 -5.416645E-11 -5.249921E-03
    2025.0000      40.0000   -4625.0000    242.605 -5.410339E-11 -5.300778E-03
    2175.0000      40.0000   -4625.0000    242.610 -5.412248E-11 -5.285280E-03
    2325.0000      40.0000   -4625.0000    242.636 -5.421974E-11 -5.206403E-03
    2475.0000      40.0000   -4625.0000    242.677 -5.437295E-11 -5.084694E-03
    2625.0000      40.0000   -4625.0000    242.720 -5.453593E-11 -4.952754E-03
    2775.0000      40.0000   -4625.0000    242.751 -5.465051E-11 -4.860652E-03
      75.0000      40.0000   -4375.0000    235.394 -3.236611E-11 -2.666756E-02
     225.0000      40.0000   -4375.0000    235.188 -3.187717E-11 -2.726825E-02
     375.0000      40.0000   -4375.0000    234.939 -3.129808E-11 -2.799522E-02
     525.0000      40.0000   -4375.0000    234.773 -3.092060E-11 -2.847685E-02
     675.0000      40.0000   -4375.0000    234.767 -3.090816E-11 -2.849413E-02
     825.0000      40.0000   -4375.0000    234.958 -3.134737E-11 -2.793898E-02
     975.0000      40.0000   -4375.0000    235.260 -3.205081E-11 -2.705939E-02
    1125.0000      40.0000   -4375.0000    235.489 -3.259082E-11 -2.639086E-02
    1275.0000      40.0000   -4375.0000    235.479 -3.256595E-11 -2.641833E-02
    1425.0000      40.0000   -4375.0000    235.300 -3.214051E-11 -2.694050E-02
    1575.0000      40.0000   -4375.0000    235.079 -3.161738E-11 -2.758757E-02
    1725.0000      40.0000   -4375.0000    234.868 -3.112799E-11 -2.820375E-02
    1875.0000      40.0000   -4375.0000    234.695 -3.073675E-11 -2.870602E-02
    2025.0000      40.0000   -4375.0000    234.599 -3.052136E-11 -2.898573E-02
    2175.0000      40.0000   -4375.0000    234.627 -3.058398E-11 -2.890407E-02
    2325.0000      40.0000   -4375.0000    234.771 -3.091127E-11 -2.848537E-02
    2475.0000      40.0000   -4375.0000    234.994 -3.142597E-11 -2.783568E-02
    2625.0000      40.0000   -4375.0000    235.250 -3.202683E-11 -2.708786E-02
    2775.0000      40.0000   -4375.0000    235.446 -3.248957E-11 -2.651692E-02
      75.0000      40.0000   -4125.0000    204.310 -1.393019E-11 -1.129865E-01
     225.0000      40.0000   -4125.0000    203.013 -1.228706E-11 -1.164726E-01
     375.0000      40.0000   -4125.0000    201.643 -1.072831E-11 -1.201497E-01
     525.0000      40.0000   -4125.0000    200.763 -9.817924E-12 -1.225078E-01
     675.0000      40.0000   -4125.0000    200.627 -9.680257E-12 -1.228737E-01
     825.0000      40.0000   -4125.0000    201.639 -1.073053E-11 -1.201591E-01
     975.0000      40.0000   -4125.0000    203.401 -1.276845E-11 -1.154294E-01
    1125.0000      40.0000   -4125.0000    204.822 -1.463274E-11 -1.116099E-01
    1275.0000      40.0000   -4125.0000    204.613 -1.433875E-11 -1.121724E-01
    1425.0000      40.0000   -4125.0000    203.574 -1.297940E-11 -1.149642E-01
    1575.0000      40.0000   -4125.0000    202.595 -1.179767E-11 -1.175953E-01
    1725.0000      40.0000   -4125.0000    201.732 -1.083134E-11 -1.199107E-01
    1875.0000      40.0000   -4125.0000    200.983 -1.004530E-11 -1.219203E-01
    2025.0000      40.0000   -4125.0000    200.483 -9.546142E-12 -1.232595E-01
    2175.0000      40.0000   -4125.0000    200.615 -9.678036E-12 -1.229062E-01
    2325.0000      40.0000   -4125.0000    201.268 -1.034595E-11 -1.211559E-01
    2475.0000      40.0000   -4125.0000    202.252 -1.141931E-11 -1.185157E-01
    2625.0000      40.0000   -4125.0000    203.517 -1.292744E-11 -1.151190E-01
    2775.0000      40.0000   -4125.0000    204.670 -1.443246E-11 -1.120189E-01
      75.0000      40.0000   -3875.0000     68.775  6.157741E-12  7.906655E-01
     225.0000      40.0000   -3875.0000     60.478  3.923084E-12  8.017536E-01
     375.0000      40.0000   -3875.0000     53.977  4.191136E-11  8.033325E-01
     525.0000      40.0000   -3875.0000     50.164  3.436273E-11  8.047255E-01
     675.0000      40.0000   -3875.0000     48.354  3.116885E-11  8.132909E-01
     825.0000      40.0000   -3875.0000     53.050  3.991296E-11  8.100076E-01
     975.0000      40.0000   -3875.0000     62.704  4.435563E-12  8.008703E-01
    1125.0000      40.0000   -3875.0000     71.769  7.185363E-12  7.791635E-01
    1275.0000      40.0000   -3875.0000     68.725  6.134204E-12  7.770310E-01
    1425.0000      40.0000   -3875.0000     62.618  4.424017E-12  7.832714E-01
    1575.0000      40.0000   -3875.0000     59.419  3.716583E-12  7.826394E-01
    1725.0000      40.0000   -3875.0000     56.812  4.862155E-11  7.831046E-01
    1875.0000      40.0000   -3875.0000     54.029  4.215384E-11  7.851197E-01
    2025.0000      40.0000   -3875.0000     51.197  3.637979E-11  7.902623E-01
    2175.0000      40.0000   -3875.0000     51.949  3.781331E-11  7.899767E-01
    2325.0000      40.0000   -3875.0000     54.632  4.344169E-11  7.873698E-01
    2475.0000      40.0000   -3875.0000     57.944  5.139800E-11  7.874864E-01
    2625.0000      40.0000   -3875.0000     63.344  4.588330E-12  7.862592E-01
    2775.0000      40.0000   -3875.0000     70.430  6.693313E-12  7.776160E-01
      75.0000      40.0000   -3625.0000     61.556  4.210854E-12  8.024664E-01
     225.0000      40.0000   -3625.0000     38.356  1.793721E-11  8.547381E-01
     375.0000      40.0000   -3625.0000     32.487  1.326406E-11  8.268065E-01
     525.0000      40.0000   -3625.0000     28.658  1.078027E-11  8.272192E-01
     675.0000      40.0000   -3625.0000     28.359  1.056444E-11  8.331927E-01
     825.0000      40.0000   -3625.0000     34.456  1.474199E-11  8.278272E-01
     975.0000      40.0000   -3625.0000     51.723  3.726441E-11  8.145198E-01
    1125.0000      40.0000   -3625.0000     66.716  5.564438E-12  7.848052E-01
    1275.0000      40.0000   -3625.0000     54.174  4.295408E-11  8.017583E-01
    1425.0000      40.0000   -3625.0000     34.645  1.509282E-11  8.352428E-01
    1575.0000      40.0000   -3625.0000     31.207  1.270406E-11  8.158343E-01
    1725.0000      40.0000   -3625.0000     28.827  1.119416E-11  8.084537E-01
    1875.0000      40.0000   -3625.0000     26.561  9.896084E-12  8.058253E-01
    2025.0000      40.0000   -3625.0000     24.703  8.924417E-12  8.121182E-01
    2175.0000      40.0000   -3625.0000     25.071  9.064749E-12  8.145181E-01
    2325.0000      40.0000   -3625.0000     27.841  1.050271E-11  8.104309E-01
    2475.0000      40.0000   -3625.0000     31.125  1.254818E-11  8.210817E-01
    2625.0000      40.0000   -3625.0000     35.635  1.558487E-11  8.577914E-01
    2775.0000      40.0000   -3625.0000     61.727  4.235279E-12  7.935996E-01
      75.0000      40.0000   -3375.0000     61.091  4.097167E-12  8.026347E-01
     225.0000      40.0000   -3375.0000     40.556  2.049916E-11  8.483851E-01
     375.0000      40.0000   -3375.0000     33.208  1.386447E-11  8.225278E-01
     525.0000      40.0000   -3375.0000     28.390  1.067857E-11  8.243818E-01
     675.0000      40.0000   -3375.0000     27.960  1.039746E-11  8.295786E-01
     825.0000      40.0000   -3375.0000     35.211  1.551115E-11  8.160693E-01
     975.0000      40.0000   -3375.0000     51.151  3.620837E-11  8.181915E-01
    1125.0000      40.0000   -3375.0000     66.188  5.289991E-12  7.848821E-01
    1275.0000      40.0000   -3375.0000     51.967  3.826006E-11  8.103685E-01
    1425.0000      40.0000   -3375.0000     36.900  1.722888E-11  8.323997E-01
    1575.0000      40.0000   -3375.0000     32.846  1.397193E-11  8.123362E-01
    1725.0000      40.0000   -3375.0000     29.633  1.176570E-11  8.026956E-01
    1875.0000      40.0000   -3375.0000     26.551  9.949819E-12  7.992331E-01
    2025.0000      40.0000   -3375.0000     24.209  8.750334E-12  8.072317E-01
    2175.0000      40.0000   -3375.0000     24.556  8.878676E-12  8.094851E-01
    2325.0000      40.0000   -3375.0000     28.298  1.082290E-11  8.037965E-01
    2475.0000      40.0000   -3375.0000     32.846  1.392442E-11  8.182196E-01
    2625.0000      40.0000   -3375.0000     37.247  1.719602E-11  8.621330E-01
    2775.0000      40.0000   -3375.0000     61.410  4.164225E-12  7.936358E-01
      75.0000      40.0000   -3125.0000     61.124  4.101164E-12  8.027641E-01
     225.0000      40.0000   -3125.0000     44.524  2.558576E-11  8.379054E-01
     375.0000      40.0000   -3125.0000     34.469  1.482592E-11  8.235078E-01
     525.0000      40.0000   -3125.0000     28.655  1.082023E-11  8.258236E-01
     675.0000      40.0000   -3125.0000     28.004  1.042189E-11  8.297047E-01
     825.0000      40.0000   -3125.0000     35.355  1.564526E-11  8.122107E-01
     975.0000      40.0000   -3125.0000     50.911  3.579048E-11  8.216650E-01
    1125.0000      40.0000   -3125.0000     65.610  5.227818E-12  7.861432E-01
    1275.0000      40.0000   -3125.0000     55.327  4.542189E-11  8.068598E-01
    1425.0000      40.0000   -3125.0000     41.555  2.212186E-11  8.339174E-01
    1575.0000      40.0000   -3125.0000     35.694  1.622524E-11  8.188335E-01
    1725.0000      40.0000   -3125.0000     31.474  1.293810E-11  8.064317E-01
    1875.0000      40.0000   -3125.0000     27.457  1.039613E-11  8.010680E-01
    2025.0000      40.0000   -3125.0000     24.532  8.868462E-12  8.099387E-01
    2175.0000      40.0000   -3125.0000     24.828  8.981704E-12  8.117541E-01
    2325.0000      40.0000   -3125.0000     29.507  1.149791E-11  8.059168E-01
    2475.0000      40.0000   -3125.0000     35.784  1.634337E-11  8.255193E-01
    2625.0000      40.0000   -3125.0000     46.682  2.912959E-11  8.204194E-01
    2775.0000      40.0000   -3125.0000     61.550  4.201528E-12  7.945099E-01
      75.0000      40.0000   -2875.0000     61.202  4.121592E-12  8.031758E-01
     225.0000      40.0000   -2875.0000     46.591  2.850520E-11  8.437807E-01
     375.0000      40.0000   -2875.0000     35.557  1.571987E-11  8.235042E-01
     525.0000      40.0000   -2875.0000     28.918  1.096279E-11  8.271217E-01
     675.0000      40.0000   -2875.0000     27.980  1.040323E-11  8.302205E-01
     825.0000      40.0000   -2875.0000     35.197  1.552625E-11  8.097120E-01
     975.0000      40.0000   -2875.0000     50.291  3.467004E-11  8.250966E-01
    1125.0000      40.0000   -2875.0000     64.716  5.000889E-12  7.886183E-01
    1275.0000      40.0000   -2875.0000     57.981  5.197842E-11  8.043952E-01
    1425.0000      40.0000   -2875.0000     48.991  3.288658E-11  8.184672E-01
    1575.0000      40.0000   -2875.0000     38.831  1.916023E-11  8.248803E-01
    1725.0000      40.0000   -2875.0000     33.414  1.431300E-11  8.106285E-01
    1875.0000      40.0000   -2875.0000     28.410  1.089706E-11  8.030608E-01
    2025.0000      40.0000   -2875.0000     24.857  8.991030E-12  8.127318E-01
    2175.0000      40.0000   -2875.0000     25.088  9.082513E-12  8.139513E-01
    2325.0000      40.0000   -2875.0000     30.443  1.204192E-11  8.083634E-01
    2475.0000      40.0000   -2875.0000     38.101  1.859979E-11  8.273049E-01
    2625.0000      40.0000   -2875.0000     48.697  3.236211E-11  8.260202E-01
    2775.0000      40.0000   -2875.0000     61.715  4.242828E-12  7.955375E-01
      75.0000      40.0000   -2625.0000     61.297  4.146905E-12  8.037113E-01
     225.0000      40.0000   -2625.0000     47.616  3.004219E-11  8.522190E-01
     375.0000      40.0000   -2625.0000     36.443  1.649525E-11  8.232209E-01
     525.0000      40.0000   -2625.0000     29.163  1.110134E-11  8.283189E-01
     675.0000      40.0000   -2625.0000     27.981  1.040279E-11  8.307955E-01
     825.0000      40.0000   -2625.0000     35.101  1.546585E-11  8.078401E-01
     975.0000      40.0000   -2625.0000     49.437  3.315836E-11  8.291766E-01
    1125.0000      40.0000   -2625.0000     63.702  4.743761E-12  7.916492E-01
    1275.0000      40.0000   -2625.0000     59.579  3.791634E-12  8.036674E-01
    1425.0000      40.0000   -2625.0000     53.042  4.060219E-11  8.141756E-01
    1575.0000      40.0000   -2625.0000     42.327  2.312062E-11  8.262186E-01
    1725.0000      40.0000   -2625.0000     35.460  1.593614E-11  8.148759E-01
    1875.0000      40.0000   -2625.0000     29.407  1.145839E-11  8.048813E-01
    2025.0000      40.0000   -2625.0000     25.164  9.110046E-12  8.153880E-01
    2175.0000      40.0000   -2625.0000     25.329  9.177548E-12  8.159823E-01
    2325.0000      40.0000   -2625.0000     31.005  1.237588E-11  8.109109E-01
    2475.0000      40.0000   -2625.0000     39.815  2.040634E-11  8.260612E-01
    2625.0000      40.0000   -2625.0000     50.400  3.533751E-11  8.295856E-01
    2775.0000      40.0000   -2625.0000     61.908  4.292566E-12  7.967329E-01
      75.0000      40.0000   -2375.0000     61.409  4.177547E-12  8.043535E-01
     225.0000      40.0000   -2375.0000     48.453  3.134470E-11  8.588145E-01
     375.0000      40.0000   -2375.0000     37.185  1.717826E-11  8.230887E-01
     525.0000      40.0000   -2375.0000     29.384  1.122658E-11  8.294364E-01
     675.0000      40.0000   -2375.0000     28.044  1.043521E-11  8.312373E-01
     825.0000      40.0000   -2375.0000     35.088  1.547740E-11  8.067101E-01
     975.0000      40.0000   -2375.0000     48.456  3.142420E-11  8.359072E-01
    1125.0000      40.0000   -2375.0000     62.702  4.502176E-12  7.949315E-01
    1275.0000      40.0000   -2375.0000     60.502  3.995915E-12  8.041046E-01
    1425.0000      40.0000   -2375.0000     55.431  4.590284E-11  8.134176E-01
    1575.0000      40.0000   -2375.0000     47.462  3.042189E-11  8.180312E-01
    1725.0000      40.0000   -2375.0000     37.612  1.786393E-11  8.189575E-01
    1875.0000      40.0000   -2375.0000     30.448  1.208766E-11  8.065165E-01
    2025.0000      40.0000   -2375.0000     25.450  9.223289E-12  8.178850E-01
    2175.0000      40.0000   -2375.0000     25.509  9.245937E-12  8.180509E-01
    2325.0000      40.0000   -2375.0000     31.340  1.257483E-11  8.132397E-01
    2475.0000      40.0000   -2375.0000     40.972  2.162626E-11  8.234111E-01
    2625.0000      40.0000   -2375.0000     51.607  3.757927E-11  8.332166E-01
    2775.0000      40.0000   -2375.0000     62.118  4.344969E-12  7.980270E-01
      75.0000      40.0000   -2125.0000     61.532  4.210410E-12  8.050788E-01
     225.0000      40.0000   -2125.0000     49.135  3.244072E-11  8.643595E-01
     375.0000      40.0000   -2125.0000     37.860  1.783285E-11  8.230775E-01
     525.0000      40.0000   -2125.0000     29.582  1.134026E-11  8.304531E-01
     675.0000      40.0000   -2125.0000     28.122  1.047606E-11  8.317077E-01
     825.0000      40.0000   -2125.0000     35.174  1.556621E-11  8.062689E-01
     975.0000      40.0000   -2125.0000     47.776  3.000267E-11  8.506150E-01
    1125.0000      40.0000   -2125.0000     61.763  4.283685E-12  7.988375E-01
    1275.0000      40.0000   -2125.0000     61.030  4.118927E-12  8.053706E-01
    1425.0000      40.0000   -2125.0000     57.001  4.974421E-11  8.139599E-01
    1575.0000      40.0000   -2125.0000     50.430  3.554801E-11  8.177860E-01
    1725.0000      40.0000   -2125.0000     39.667  1.993783E-11  8.215683E-01
    1875.0000      40.0000   -2125.0000     31.495  1.276002E-11  8.080261E-01
    2025.0000      40.0000   -2125.0000     25.719  9.332091E-12  8.201964E-01
    2175.0000      40.0000   -2125.0000     25.584  9.261036E-12  8.202256E-01
    2325.0000      40.0000   -2125.0000     31.639  1.275513E-11  8.152839E-01
    2475.0000      40.0000   -2125.0000     41.639  2.225686E-11  8.210805E-01
    2625.0000      40.0000   -2125.0000     52.417  3.912559E-11  8.373068E-01
    2775.0000      40.0000   -2125.0000     62.337  4.401812E-12  7.993685E-01
      75.0000      40.0000   -1875.0000     61.668  4.247713E-12  8.058854E-01
     225.0000      40.0000   -1875.0000     49.800  3.356915E-11  8.679631E-01
     375.0000      40.0000   -1875.0000     38.551  1.853495E-11  8.231792E-01
     525.0000      40.0000   -1875.0000     29.765  1.144862E-11  8.313492E-01
     675.0000      40.0000   -1875.0000     28.189  1.051070E-11  8.322432E-01
     825.0000      40.0000   -1875.0000     35.313  1.569944E-11  8.064221E-01
     975.0000      40.0000   -1875.0000     46.416  2.773781E-11  8.838041E-01
    1125.0000      40.0000   -1875.0000     60.885  4.089618E-12  8.038694E-01
    1275.0000      40.0000   -1875.0000     61.333  4.194867E-12  8.073138E-01
    1425.0000      40.0000   -1875.0000     58.082  5.257661E-11  8.153090E-01
    1575.0000      40.0000   -1875.0000     52.378  3.934408E-11  8.185838E-01
    1725.0000      40.0000   -1875.0000     41.599  2.209610E-11  8.231896E-01
    1875.0000      40.0000   -1875.0000     32.492  1.344347E-11  8.095455E-01
    2025.0000      40.0000   -1875.0000     25.979  9.440448E-12  8.223160E-01
    2175.0000      40.0000   -1875.0000     25.622  9.265033E-12  8.223127E-01
    2325.0000      40.0000   -1875.0000     31.896  1.291278E-11  8.173035E-01
    2475.0000      40.0000   -1875.0000     42.063  2.260458E-11  8.197674E-01
    2625.0000      40.0000   -1875.0000     52.979  4.019407E-11  8.416899E-01
    2775.0000      40.0000   -1875.0000     62.561  4.461320E-12  8.007287E-01
      75.0000      40.0000   -1625.0000     61.817  4.288569E-12  8.067845E-01
     225.0000      40.0000   -1625.0000     50.546  3.492584E-11  8.694186E-01
     375.0000      40.0000   -1625.0000     39.314  1.934453E-11  8.234134E-01
     525.0000      40.0000   -1625.0000     29.932  1.154943E-11  8.321112E-01
     675.0000      40.0000   -1625.0000     28.241  1.053913E-11  8.327959E-01
     825.0000      40.0000   -1625.0000     35.561  1.591660E-11  8.074724E-01
     975.0000      40.0000   -1625.0000     45.671  2.700062E-11  8.558571E-01
    1125.0000      40.0000   -1625.0000     60.239  3.953282E-12  8.065350E-01
    1275.0000      40.0000   -1625.0000     61.553  4.251266E-12  8.094115E-01
    1425.0000      40.0000   -1625.0000     58.852  5.469758E-11  8.171561E-01
    1575.0000      40.0000   -1625.0000     53.491  4.167333E-11  8.204840E-01
    1725.0000      40.0000   -1625.0000     43.263  2.411582E-11  8.243099E-01
    1875.0000      40.0000   -1625.0000     33.398  1.409939E-11  8.111200E-01
    2025.0000      40.0000   -1625.0000     26.228  9.548806E-12  8.242544E-01
    2175.0000      40.0000   -1625.0000     25.675  9.275691E-12  8.242393E-01
    2325.0000      40.0000   -1625.0000     32.147  1.306866E-11  8.194060E-01
    2475.0000      40.0000   -1625.0000     42.481  2.298650E-11  8.193978E-01
    2625.0000      40.0000   -1625.0000     53.429  4.103251E-11  8.458829E-01
    2775.0000      40.0000   -1625.0000     62.788  4.520384E-12  8.020961E-01
      75.0000      40.0000   -1375.0000     61.981  4.333867E-12  8.077858E-01
     225.0000      40.0000   -1375.0000     51.383  3.654543E-11  8.693852E-01
     375.0000      40.0000   -1375.0000     40.143  2.026201E-11  8.238767E-01
     525.0000      40.0000   -1375.0000     30.074  1.163514E-11  8.327235E-01
     675.0000      40.0000   -1375.0000     28.309  1.057465E-11  8.331794E-01
     825.0000      40.0000   -1375.0000     35.943  1.625011E-11  8.090285E-01
     975.0000      40.0000   -1375.0000     45.516  2.690603E-11  8.421185E-01
    1125.0000      40.0000   -1375.0000     59.875  3.877343E-12  8.080434E-01
    1275.0000      40.0000   -1375.0000     61.781  4.310330E-12  8.115354E-01
    1425.0000      40.0000   -1375.0000     59.434  3.794742E-12  8.193445E-01
    1575.0000      40.0000   -1375.0000     54.209  4.323386E-11  8.228860E-01
    1725.0000      40.0000   -1375.0000     44.314  2.543565E-11  8.256686E-01
    1875.0000      40.0000   -1375.0000     34.192  1.470468E-11  8.127954E-01
    2025.0000      40.0000   -1375.0000     26.459  9.650059E-12  8.260279E-01
    2175.0000      40.0000   -1375.0000     25.780  9.311663E-12  8.259834E-01
    2325.0000      40.0000   -1375.0000     32.455  1.326983E-11  8.215582E-01
    2475.0000      40.0000   -1375.0000     42.997  2.354295E-11  8.197687E-01
    2625.0000      40.0000   -1375.0000     53.939  4.201972E-11  8.489566E-01
    2775.0000      40.0000   -1375.0000     63.021  4.582557E-12  8.034817E-01
      75.0000      40.0000   -1125.0000     62.162  4.383161E-12  8.088917E-01
     225.0000      40.0000   -1125.0000     52.275  3.836842E-11  8.682524E-01
     375.0000      40.0000   -1125.0000     40.979  2.122480E-11  8.247261E-01
     525.0000      40.0000   -1125.0000     30.173  1.169553E-11  8.331618E-01
     675.0000      40.0000   -1125.0000     28.368  1.060974E-11  8.334883E-01
     825.0000      40.0000   -1125.0000     36.542  1.678790E-11  8.105796E-01
     975.0000      40.0000   -1125.0000     46.110  2.789724E-11  8.326606E-01
    1125.0000      40.0000   -1125.0000     59.925  3.893330E-12  8.086898E-01
    1275.0000      40.0000   -1125.0000     62.069  4.385825E-12  8.137109E-01
    1425.0000      40.0000   -1125.0000     59.917  3.901324E-12  8.217657E-01
    1575.0000      40.0000   -1125.0000     54.797  4.453726E-11  8.255601E-01
    1725.0000      40.0000   -1125.0000     45.246  2.667111E-11  8.266427E-01
    1875.0000      40.0000   -1125.0000     34.919  1.528555E-11  8.146971E-01
    2025.0000      40.0000   -1125.0000     26.671  9.742429E-12  8.276517E-01
    2175.0000      40.0000   -1125.0000     25.953  9.381829E-12  8.275710E-01
    2325.0000      40.0000   -1125.0000     32.767  1.348122E-11  8.237419E-01
    2475.0000      40.0000   -1125.0000     43.905  2.467404E-11  8.204651E-01
    2625.0000      40.0000   -1125.0000     54.736  4.369927E-11  8.505031E-01
    2775.0000      40.0000   -1125.0000     63.266  4.649170E-12  8.049236E-01
      75.0000      40.0000    -875.0000     62.359  4.435119E-12  8.107146E-01
     225.0000      40.0000    -875.0000     53.233  4.039480E-11  8.660184E-01
     375.0000      40.0000    -875.0000     41.730  2.211831E-11  8.261109E-01
     525.0000      40.0000    -875.0000     30.248  1.174261E-11  8.334213E-01
     675.0000      40.0000    -875.0000     28.386  1.062039E-11  8.336848E-01
     825.0000      40.0000    -875.0000     37.444  1.763389E-11  8.117966E-01
     975.0000      40.0000    -875.0000     48.427  3.172573E-11  8.218482E-01
    1125.0000      40.0000    -875.0000     60.053  3.926637E-12  8.104040E-01
    1275.0000      40.0000    -875.0000     62.414  4.472867E-12  8.166060E-01
    1425.0000      40.0000    -875.0000     60.369  4.003908E-12  8.249371E-01
    1575.0000      40.0000    -875.0000     55.508  4.613199E-11  8.289143E-01
    1725.0000      40.0000    -875.0000     46.531  2.853406E-11  8.277704E-01
    1875.0000      40.0000    -875.0000     35.663  1.590594E-11  8.167043E-01
    2025.0000      40.0000    -875.0000     26.862  9.830359E-12  8.291236E-01
    2175.0000      40.0000    -875.0000     26.137  9.460432E-12  8.291468E-01
    2325.0000      40.0000    -875.0000     33.109  1.371880E-11  8.257326E-01
    2475.0000      40.0000    -875.0000     45.484  2.684164E-11  8.214655E-01
    2625.0000      40.0000    -875.0000     55.695  4.583178E-11  8.513228E-01
    2775.0000      40.0000    -875.0000     63.525  4.718892E-12  8.070659E-01
      75.0000      40.0000    -625.0000     62.583  4.494183E-12  8.127194E-01
     225.0000      40.0000    -625.0000     54.566  4.339196E-11  8.610763E-01
     375.0000      40.0000    -625.0000     42.320  2.283640E-11  8.278835E-01
     525.0000      40.0000    -625.0000     30.308  1.177991E-11  8.335554E-01
     675.0000      40.0000    -625.0000     28.351  1.060130E-11  8.336431E-01
     825.0000      40.0000    -625.0000     38.587  1.877520E-11  8.122774E-01
     975.0000      40.0000    -625.0000     51.356  3.707612E-11  8.153992E-01
    1125.0000      40.0000    -625.0000     60.350  3.995027E-12  8.129862E-01
    1275.0000      40.0000    -625.0000     62.757  4.560796E-12  8.194924E-01
    1425.0000      40.0000    -625.0000     60.835  4.108713E-12  8.281680E-01
    1575.0000      40.0000    -625.0000     56.517  4.853051E-11  8.321361E-01
    1725.0000      40.0000    -625.0000     48.576  3.183143E-11  8.293854E-01
    1875.0000      40.0000    -625.0000     36.499  1.664002E-11  8.185588E-01
    2025.0000      40.0000    -625.0000     27.037  9.912959E-12  8.304255E-01
    2175.0000      40.0000    -625.0000     26.322  9.538148E-12  8.307183E-01
    2325.0000      40.0000    -625.0000     33.391  1.391598E-11  8.273204E-01
    2475.0000      40.0000    -625.0000     47.330  2.965717E-11  8.220724E-01
    2625.0000      40.0000    -625.0000     56.784  4.841993E-11  8.508793E-01
    2775.0000      40.0000    -625.0000     63.800  4.790834E-12  8.092968E-01
      75.0000      40.0000    -375.0000     62.828  4.562573E-12  8.149173E-01
     225.0000      40.0000    -375.0000     56.185  4.737766E-11  8.520675E-01
     375.0000      40.0000    -375.0000     42.813  2.344214E-11  8.296179E-01
     525.0000      40.0000    -375.0000     30.198  1.171108E-11  8.337372E-01
     675.0000      40.0000    -375.0000     28.255  1.055422E-11  8.331987E-01
     825.0000      40.0000    -375.0000     39.727  1.998135E-11  8.126014E-01
     975.0000      40.0000    -375.0000     54.749  4.432410E-11  8.130643E-01
    1125.0000      40.0000    -375.0000     60.823  4.107381E-12  8.164511E-01
    1275.0000      40.0000    -375.0000     63.088  4.650058E-12  8.223657E-01
    1425.0000      40.0000    -375.0000     61.301  4.221068E-12  8.314671E-01
    1575.0000      40.0000    -375.0000     57.757  5.169065E-11  8.360154E-01
    1725.0000      40.0000    -375.0000     53.450  4.124212E-11  8.218301E-01
    1875.0000      40.0000    -375.0000     37.362  1.744338E-11  8.201355E-01
    2025.0000      40.0000    -375.0000     27.193  9.987122E-12  8.314961E-01
    2175.0000      40.0000    -375.0000     26.385  9.555912E-12  8.323742E-01
    2325.0000      40.0000    -375.0000     33.567  1.404565E-11  8.283528E-01
    2475.0000      40.0000    -375.0000     47.859  3.055733E-11  8.253575E-01
    2625.0000      40.0000    -375.0000     58.050  5.172440E-11  8.472543E-01
    2775.0000      40.0000    -375.0000     64.085  4.870770E-12  8.116200E-01
      75.0000      40.0000    -127.5000     62.190  4.459544E-12  8.115864E-01
     225.0000      40.0000    -127.5000     56.771  4.959189E-11  8.295162E-01
     375.0000      40.0000    -127.5000     41.399  2.172129E-11  8.277678E-01
     525.0000      40.0000    -127.5000     29.180  1.108980E-11  8.339523E-01
     675.0000      40.0000    -127.5000     27.994  1.041833E-11  8.321744E-01
     825.0000      40.0000    -127.5000     39.087  1.929079E-11  8.138152E-01
     975.0000      40.0000    -127.5000     55.384  4.643486E-11  8.019209E-01
    1125.0000      40.0000    -127.5000     60.336  4.046541E-12  8.133971E-01
    1275.0000      40.0000    -127.5000     62.490  4.555467E-12  8.194276E-01
    1425.0000      40.0000    -127.5000     60.725  4.136691E-12  8.278030E-01
    1575.0000      40.0000    -127.5000     57.514  5.156364E-11  8.292855E-01
    1725.0000      40.0000    -127.5000     53.075  4.100587E-11  8.097051E-01
    1875.0000      40.0000    -127.5000     36.657  1.679545E-11  8.206330E-01
    2025.0000      40.0000    -127.5000     27.122  9.948486E-12  8.323901E-01
    2175.0000      40.0000    -127.5000     26.035  9.369394E-12  8.340947E-01