Title="TOUGHREACT V3.85omp : Mineral Abundances (Total or Changes) and/or Exchanged Species:            Change in volume fraction"
Variables= "X(m)"   "Y(m)"   "Z(m)"       "T(C)"   "Porosity"  "Poros_Chg" "Permx(m^2)"     "Kx/Kx0" "Permz(m^2)"     "Kz/Kz0"      "calcite"     "dolomite"
Zone T= "0.00000000E+00 sec" I=     399 J=       1 K=       1 F=Point SolutionTime= 0.00000000E+00
      75.0000      40.0000   -4875.0000  244.375  0.01000  0.00000E+00  1.01000E-15  1.0000E+00  1.01000E-15  1.0000E+00  0.0000E+00  0.0000E+00
     225.0000      40.0000   -4875.0000  244.375  0.01000  0.00000E+00  1.01000E-15  1.0000E+00  1.01000E-15  1.0000E+00  0.0000E+00  0.0000E+00
     375.0000      40.0000   -4875.0000  244.375  0.01000  0.00000E+00  1.01000E-15  1.0000E+00  1.01000E-15  1.0000E+00  0.0000E+00  0.0000E+00
     525.0000      40.0000   -4875.0000  244.375  0.01000  0.00000E+00  1.01000E-15  1.0000E+00  1.01000E-15  1.0000E+00  0.0000E+00  0.0000E+00
     675.0000      40.0000   -4875.0000  244.375  0.01000  0.00000E+00  1.01000E-15  1.0000E+00  1.01000E-15  1.0000E+00  0.0000E+00  0.0000E+00
     825.0000      40.0000   -4875.0000  244.375  0.01000  0.00000E+00  1.01000E-15  1.0000E+00  1.01000E-15  1.0000E+00  0.0000E+00  0.0000E+00
     975.0000      40.0000   -4875.0000  244.375  0.01000  0.00000E+00  1.01000E-15  1.0000E+00  1.01000E-15  1.0000E+00  0.0000E+00  0.0000E+00
    1125.0000      40.0000   -4875.0000  244.375  0.01000  0.00000E+00  1.01000E-15  1.0000E+00  1.01000E-15  1.0000E+00  0.0000E+00  0.0000E+00
    1275.0000      40.0000   -4875.0000  244.375  0.01000  0.00000E+00  1.01000E-15  1.0000E+00  1.01000E-15  1.0000E+00  0.0000E+00  0.0000E+00
    1425.0000      40.0000   -4875.0000  244.375  0.01000  0.00000E+00  1.01000E-15  1.0000E+00  1.01000E-15  1.0000E+00  0.0000E+00  0.0000E+00
    1575.0000      40.0000   -4875.0000  244.375  0.01000  0.00000E+00  1.01000E-15  1.0000E+00  1.01000E-15  1.0000E+00  0.0000E+00  0.0000E+00
    1725.0000      40.0000   -4875.0000  244.375  0.01000  0.00000E+00  1.01000E-15  1.0000E+00  1.01000E-15  1.0000E+00  0.0000E+00  0.0000E+00
    1875.0000      40.0000   -4875.0000  244.375  0.01000  0.00000E+00  1.01000E-15  1.0000E+00  1.01000E-15  1.0000E+00  0.0000E+00  0.0000E+00
    2025.0000      40.0000   -4875.0000  244.375  0.01000  0.00000E+00  1.01000E-15  1.0000E+00  1.01000E-15  1.0000E+00  0.0000E+00  0.0000E+00
    2175.0000      40.0000   -4875.0000  244.375  0.01000  0.00000E+00  1.01000E-15  1.0000E+00  1.01000E-15  1.0000E+00  0.0000E+00  0.0000E+00
    2325.0000      40.0000   -4875.0000  244.375  0.01000  0.00000E+00  1.01000E-15  1.0000E+00  1.01000E-15  1.0000E+00  0.0000E+00  0.0000E+00
    2475.0000      40.0000   -4875.0000  244.375  0.01000  0.00000E+00  1.01000E-15  1.0000E+00  1.01000E-15  1.0000E+00  0.0000E+00  0.0000E+00
    2625.0000      40.0000   -4875.0000  244.375  0.01000  0.00000E+00  1.01000E-15  1.0000E+00  1.01000E-15  1.0000E+00  0.0000E+00  0.0000E+00
    2775.0000      40.0000   -4875.0000  244.375  0.01000  0.00000E+00  1.01000E-15  1.0000E+00  1.01000E-15  1.0000E+00  0.0000E+00  0.0000E+00
      75.0000      40.0000   -4625.0000  242.749  0.01000  0.00000E+00  1.01000E-15  1.0000E+00  1.01000E-15  1.0000E+00  0.0000E+00  0.0000E+00
     225.0000      40.0000   -4625.0000  242.719  0.01000  0.00000E+00  1.01000E-15  1.0000E+00  1.01000E-15  1.0000E+00  0.0000E+00  0.0000E+00
     375.0000      40.0000   -4625.0000  242.680  0.01000  0.00000E+00  1.01000E-15  1.0000E+00  1.01000E-15  1.0000E+00  0.0000E+00  0.0000E+00
     525.0000      40.0000   -4625.0000  242.654  0.01000  0.00000E+00  1.01000E-15  1.0000E+00  1.01000E-15  1.0000E+00  0.0000E+00  0.0000E+00
     675.0000      40.0000   -4625.0000  242.655  0.01000  0.00000E+00  1.01000E-15  1.0000E+00  1.01000E-15  1.0000E+00  0.0000E+00  0.0000E+00
     825.0000      40.0000   -4625.0000  242.685  0.01000  0.00000E+00  1.01000E-15  1.0000E+00  1.01000E-15  1.0000E+00  0.0000E+00  0.0000E+00
     975.0000      40.0000   -4625.0000  242.731  0.01000  0.00000E+00  1.01000E-15  1.0000E+00  1.01000E-15  1.0000E+00  0.0000E+00  0.0000E+00
    1125.0000      40.0000   -4625.0000  242.764  0.01000  0.00000E+00  1.01000E-15  1.0000E+00  1.01000E-15  1.0000E+00  0.0000E+00  0.0000E+00
    1275.0000      40.0000   -4625.0000  242.764  0.01000  0.00000E+00  1.01000E-15  1.0000E+00  1.01000E-15  1.0000E+00  0.0000E+00  0.0000E+00
    1425.0000      40.0000   -4625.0000  242.735  0.01000  0.00000E+00  1.01000E-15  1.0000E+00  1.01000E-15  1.0000E+00  0.0000E+00  0.0000E+00
    1575.0000      40.0000   -4625.0000  242.695  0.01000  0.00000E+00  1.01000E-15  1.0000E+00  1.01000E-15  1.0000E+00  0.0000E+00  0.0000E+00
    1725.0000      40.0000   -4625.0000  242.654  0.01000  0.00000E+00  1.01000E-15  1.0000E+00  1.01000E-15  1.0000E+00  0.0000E+00  0.0000E+00
    1875.0000      40.0000   -4625.0000  242.622  0.01000  0.00000E+00  1.01000E-15  1.0000E+00  1.01000E-15  1.0000E+00  0.0000E+00  0.0000E+00
    2025.0000      40.0000   -4625.0000  242.605  0.01000  0.00000E+00  1.01000E-15  1.0000E+00  1.01000E-15  1.0000E+00  0.0000E+00  0.0000E+00
    2175.0000      40.0000   -4625.0000  242.610  0.01000  0.00000E+00  1.01000E-15  1.0000E+00  1.01000E-15  1.0000E+00  0.0000E+00  0.0000E+00
    2325.0000      40.0000   -4625.0000  242.636  0.01000  0.00000E+00  1.01000E-15  1.0000E+00  1.01000E-15  1.0000E+00  0.0000E+00  0.0000E+00
    2475.0000      40.0000   -4625.0000  242.677  0.01000  0.00000E+00  1.01000E-15  1.0000E+00  1.01000E-15  1.0000E+00  0.0000E+00  0.0000E+00
    2625.0000      40.0000   -4625.0000  242.720  0.01000  0.00000E+00  1.01000E-15  1.0000E+00  1.01000E-15  1.0000E+00  0.0000E+00  0.0000E+00
    2775.0000      40.0000   -4625.0000  242.751  0.01000  0.00000E+00  1.01000E-15  1.0000E+00  1.01000E-15  1.0000E+00  0.0000E+00  0.0000E+00
      75.0000      40.0000   -4375.0000  235.394  0.01000  0.00000E+00  1.01000E-15  1.0000E+00  1.01000E-15  1.0000E+00  0.0000E+00  0.0000E+00
     225.0000      40.0000   -4375.0000  235.188  0.01000  0.00000E+00  1.01000E-15  1.0000E+00  1.01000E-15  1.0000E+00  0.0000E+00  0.0000E+00
     375.0000      40.0000   -4375.0000  234.939  0.01000  0.00000E+00  1.01000E-15  1.0000E+00  1.01000E-15  1.0000E+00  0.0000E+00  0.0000E+00
     525.0000      40.0000   -4375.0000  234.773  0.01000  0.00000E+00  1.01000E-15  1.0000E+00  1.01000E-15  1.0000E+00  0.0000E+00  0.0000E+00
     675.0000      40.0000   -4375.0000  234.767  0.01000  0.00000E+00  1.01000E-15  1.0000E+00  1.01000E-15  1.0000E+00  0.0000E+00  0.0000E+00
     825.0000      40.0000   -4375.0000  234.958  0.01000  0.00000E+00  1.01000E-15  1.0000E+00  1.01000E-15  1.0000E+00  0.0000E+00  0.0000E+00
     975.0000      40.0000   -4375.0000  235.260  0.01000  0.00000E+00  1.01000E-15  1.0000E+00  1.01000E-15  1.0000E+00  0.0000E+00  0.0000E+00
    1125.0000      40.0000   -4375.0000  235.489  0.01000  0.00000E+00  1.01000E-15  1.0000E+00  1.01000E-15  1.0000E+00  0.0000E+00  0.0000E+00
    1275.0000      40.0000   -4375.0000  235.479  0.01000  0.00000E+00  1.01000E-15  1.0000E+00  1.01000E-15  1.0000E+00  0.0000E+00  0.0000E+00
    1425.0000      40.0000   -4375.0000  235.300  0.01000  0.00000E+00  1.01000E-15  1.0000E+00  1.01000E-15  1.0000E+00  0.0000E+00  0.0000E+00
    1575.0000      40.0000   -4375.0000  235.079  0.01000  0.00000E+00  1.01000E-15  1.0000E+00  1.01000E-15  1.0000E+00  0.0000E+00  0.0000E+00
    1725.0000      40.0000   -4375.0000  234.868  0.01000  0.00000E+00  1.01000E-15  1.0000E+00  1.01000E-15  1.0000E+00  0.0000E+00  0.0000E+00
    1875.0000      40.0000   -4375.0000  234.695  0.01000  0.00000E+00  1.01000E-15  1.0000E+00  1.01000E-15  1.0000E+00  0.0000E+00  0.0000E+00
    2025.0000      40.0000   -4375.0000  234.599  0.01000  0.00000E+00  1.01000E-15  1.0000E+00  1.01000E-15  1.0000E+00  0.0000E+00  0.0000E+00
    2175.0000      40.0000   -4375.0000  234.627  0.01000  0.00000E+00  1.01000E-15  1.0000E+00  1.01000E-15  1.0000E+00  0.0000E+00  0.0000E+00
    2325.0000      40.0000   -4375.0000  234.771  0.01000  0.00000E+00  1.01000E-15  1.0000E+00  1.01000E-15  1.0000E+00  0.0000E+00  0.0000E+00
    2475.0000      40.0000   -4375.0000  234.994  0.01000  0.00000E+00  1.01000E-15  1.0000E+00  1.01000E-15  1.0000E+00  0.0000E+00  0.0000E+00
    2625.0000      40.0000   -4375.0000  235.250  0.01000  0.00000E+00  1.01000E-15  1.0000E+00  1.01000E-15  1.0000E+00  0.0000E+00  0.0000E+00
    2775.0000      40.0000   -4375.0000  235.446  0.01000  0.00000E+00  1.01000E-15  1.0000E+00  1.01000E-15  1.0000E+00  0.0000E+00  0.0000E+00
      75.0000      40.0000   -4125.0000  204.310  0.01000  0.00000E+00  1.01000E-15  1.0000E+00  1.01000E-15  1.0000E+00  0.0000E+00  0.0000E+00
     225.0000      40.0000   -4125.0000  203.012  0.01000  0.00000E+00  1.01000E-15  1.0000E+00  1.01000E-15  1.0000E+00  0.0000E+00  0.0000E+00
     375.0000      40.0000   -4125.0000  201.642  0.01000  0.00000E+00  1.01000E-15  1.0000E+00  1.01000E-15  1.0000E+00  0.0000E+00  0.0000E+00
     525.0000      40.0000   -4125.0000  200.763  0.00999  0.00000E+00  1.01000E-15  1.0000E+00  1.01000E-15  1.0000E+00  0.0000E+00  0.0000E+00
     675.0000      40.0000   -4125.0000  200.626  0.00999  0.00000E+00  1.01000E-15  1.0000E+00  1.01000E-15  1.0000E+00  0.0000E+00  0.0000E+00
     825.0000      40.0000   -4125.0000  201.639  0.01000  0.00000E+00  1.01000E-15  1.0000E+00  1.01000E-15  1.0000E+00  0.0000E+00  0.0000E+00
     975.0000      40.0000   -4125.0000  203.401  0.01000  0.00000E+00  1.01000E-15  1.0000E+00  1.01000E-15  1.0000E+00  0.0000E+00  0.0000E+00
    1125.0000      40.0000   -4125.0000  204.822  0.01000  0.00000E+00  1.01000E-15  1.0000E+00  1.01000E-15  1.0000E+00  0.0000E+00  0.0000E+00
    1275.0000      40.0000   -4125.0000  204.613  0.01000  0.00000E+00  1.01000E-15  1.0000E+00  1.01000E-15  1.0000E+00  0.0000E+00  0.0000E+00
    1425.0000      40.0000   -4125.0000  203.574  0.01000  0.00000E+00  1.01000E-15  1.0000E+00  1.01000E-15  1.0000E+00  0.0000E+00  0.0000E+00
    1575.0000      40.0000   -4125.0000  202.594  0.01000  0.00000E+00  1.01000E-15  1.0000E+00  1.01000E-15  1.0000E+00  0.0000E+00  0.0000E+00
    1725.0000      40.0000   -4125.0000  201.731  0.01000  0.00000E+00  1.01000E-15  1.0000E+00  1.01000E-15  1.0000E+00  0.0000E+00  0.0000E+00
    1875.0000      40.0000   -4125.0000  200.982  0.01000  0.00000E+00  1.01000E-15  1.0000E+00  1.01000E-15  1.0000E+00  0.0000E+00  0.0000E+00
    2025.0000      40.0000   -4125.0000  200.483  0.01000  0.00000E+00  1.01000E-15  1.0000E+00  1.01000E-15  1.0000E+00  0.0000E+00  0.0000E+00
    2175.0000      40.0000   -4125.0000  200.614  0.01000  0.00000E+00  1.01000E-15  1.0000E+00  1.01000E-15  1.0000E+00  0.0000E+00  0.0000E+00
    2325.0000      40.0000   -4125.0000  201.267  0.01000  0.00000E+00  1.01000E-15  1.0000E+00  1.01000E-15  1.0000E+00  0.0000E+00  0.0000E+00
    2475.0000      40.0000   -4125.0000  202.251  0.01000  0.00000E+00  1.01000E-15  1.0000E+00  1.01000E-15  1.0000E+00  0.0000E+00  0.0000E+00
    2625.0000      40.0000   -4125.0000  203.517  0.01000  0.00000E+00  1.01000E-15  1.0000E+00  1.01000E-15  1.0000E+00  0.0000E+00  0.0000E+00
    2775.0000      40.0000   -4125.0000  204.670  0.01000  0.00000E+00  1.01000E-15  1.0000E+00  1.01000E-15  1.0000E+00  0.0000E+00  0.0000E+00
      75.0000      40.0000   -3875.0000   68.772  0.20510  0.00000E+00  2.00000E-12  1.0000E+00  2.00000E-12  1.0000E+00  0.0000E+00  0.0000E+00
     225.0000      40.0000   -3875.0000   60.476  0.20506  0.00000E+00  2.00000E-12  1.0000E+00  2.00000E-12  1.0000E+00  0.0000E+00  0.0000E+00
     375.0000      40.0000   -3875.0000   53.974  0.20502  0.00000E+00  2.00000E-12  1.0000E+00  2.00000E-12  1.0000E+00  0.0000E+00  0.0000E+00
     525.0000      40.0000   -3875.0000   50.161  0.20500  0.00000E+00  2.00000E-12  1.0000E+00  2.00000E-12  1.0000E+00  0.0000E+00  0.0000E+00
     675.0000      40.0000   -3875.0000   48.351  0.20499  0.00000E+00  2.00000E-12  1.0000E+00  2.00000E-12  1.0000E+00  0.0000E+00  0.0000E+00
     825.0000      40.0000   -3875.0000   53.048  0.20501  0.00000E+00  2.00000E-12  1.0000E+00  2.00000E-12  1.0000E+00  0.0000E+00  0.0000E+00
     975.0000      40.0000   -3875.0000   62.701  0.20507  0.00000E+00  2.00000E-12  1.0000E+00  2.00000E-12  1.0000E+00  0.0000E+00  0.0000E+00
    1125.0000      40.0000   -3875.0000   71.767  0.20512  0.00000E+00  2.00000E-12  1.0000E+00  2.00000E-12  1.0000E+00  0.0000E+00  0.0000E+00
    1275.0000      40.0000   -3875.0000   68.722  0.20511  0.00000E+00  2.00000E-12  1.0000E+00  2.00000E-12  1.0000E+00  0.0000E+00  0.0000E+00
    1425.0000      40.0000   -3875.0000   62.616  0.20507  0.00000E+00  2.00000E-12  1.0000E+00  2.00000E-12  1.0000E+00  0.0000E+00  0.0000E+00
    1575.0000      40.0000   -3875.0000   59.416  0.20506  0.00000E+00  2.00000E-12  1.0000E+00  2.00000E-12  1.0000E+00  0.0000E+00  0.0000E+00
    1725.0000      40.0000   -3875.0000   56.809  0.20504  0.00000E+00  2.00000E-12  1.0000E+00  2.00000E-12  1.0000E+00  0.0000E+00  0.0000E+00
    1875.0000      40.0000   -3875.0000   54.026  0.20503  0.00000E+00  2.00000E-12  1.0000E+00  2.00000E-12  1.0000E+00  0.0000E+00  0.0000E+00
    2025.0000      40.0000   -3875.0000   51.194  0.20501  0.00000E+00  2.00000E-12  1.0000E+00  2.00000E-12  1.0000E+00  0.0000E+00  0.0000E+00
    2175.0000      40.0000   -3875.0000   51.946  0.20502  0.00000E+00  2.00000E-12  1.0000E+00  2.00000E-12  1.0000E+00  0.0000E+00  0.0000E+00
    2325.0000      40.0000   -3875.0000   54.629  0.20503  0.00000E+00  2.00000E-12  1.0000E+00  2.00000E-12  1.0000E+00  0.0000E+00  0.0000E+00
    2475.0000      40.0000   -3875.0000   57.941  0.20505  0.00000E+00  2.00000E-12  1.0000E+00  2.00000E-12  1.0000E+00  0.0000E+00  0.0000E+00
    2625.0000      40.0000   -3875.0000   63.342  0.20508  0.00000E+00  2.00000E-12  1.0000E+00  2.00000E-12  1.0000E+00  0.0000E+00  0.0000E+00
    2775.0000      40.0000   -3875.0000   70.427  0.20512  0.00000E+00  2.00000E-12  1.0000E+00  2.00000E-12  1.0000E+00  0.0000E+00  0.0000E+00
      75.0000      40.0000   -3625.0000   61.556  0.20513  0.00000E+00  2.00000E-12  1.0000E+00  2.00000E-12  1.0000E+00  0.0000E+00  0.0000E+00
     225.0000      40.0000   -3625.0000   38.356  0.20499  0.00000E+00  2.00000E-12  1.0000E+00  2.00000E-12  1.0000E+00  0.0000E+00  0.0000E+00
     375.0000      40.0000   -3625.0000   32.488  0.20495  0.00000E+00  2.00000E-12  1.0000E+00  2.00000E-12  1.0000E+00  0.0000E+00  0.0000E+00
     525.0000      40.0000   -3625.0000   28.658  0.20493  0.00000E+00  2.00000E-12  1.0000E+00  2.00000E-12  1.0000E+00  0.0000E+00  0.0000E+00
     675.0000      40.0000   -3625.0000   28.359  0.20493  0.00000E+00  2.00000E-12  1.0000E+00  2.00000E-12  1.0000E+00  0.0000E+00  0.0000E+00
     825.0000      40.0000   -3625.0000   34.457  0.20496  0.00000E+00  2.00000E-12  1.0000E+00  2.00000E-12  1.0000E+00  0.0000E+00  0.0000E+00
     975.0000      40.0000   -3625.0000   51.724  0.20507  0.00000E+00  2.00000E-12  1.0000E+00  2.00000E-12  1.0000E+00  0.0000E+00  0.0000E+00
    1125.0000      40.0000   -3625.0000   66.716  0.20516  0.00000E+00  2.00000E-12  1.0000E+00  2.00000E-12  1.0000E+00  0.0000E+00  0.0000E+00
    1275.0000      40.0000   -3625.0000   54.175  0.20509  0.00000E+00  2.00000E-12  1.0000E+00  2.00000E-12  1.0000E+00  0.0000E+00  0.0000E+00
    1425.0000      40.0000   -3625.0000   34.646  0.20497  0.00000E+00  2.00000E-12  1.0000E+00  2.00000E-12  1.0000E+00  0.0000E+00  0.0000E+00
    1575.0000      40.0000   -3625.0000   31.207  0.20495  0.00000E+00  2.00000E-12  1.0000E+00  2.00000E-12  1.0000E+00  0.0000E+00  0.0000E+00
    1725.0000      40.0000   -3625.0000   28.827  0.20494  0.00000E+00  2.00000E-12  1.0000E+00  2.00000E-12  1.0000E+00  0.0000E+00  0.0000E+00
    1875.0000      40.0000   -3625.0000   26.561  0.20492  0.00000E+00  2.00000E-12  1.0000E+00  2.00000E-12  1.0000E+00  0.0000E+00  0.0000E+00
    2025.0000      40.0000   -3625.0000   24.703  0.20491  0.00000E+00  2.00000E-12  1.0000E+00  2.00000E-12  1.0000E+00  0.0000E+00  0.0000E+00
    2175.0000      40.0000   -3625.0000   25.070  0.20491  0.00000E+00  2.00000E-12  1.0000E+00  2.00000E-12  1.0000E+00  0.0000E+00  0.0000E+00
    2325.0000      40.0000   -3625.0000   27.841  0.20493  0.00000E+00  2.00000E-12  1.0000E+00  2.00000E-12  1.0000E+00  0.0000E+00  0.0000E+00
    2475.0000      40.0000   -3625.0000   31.126  0.20495  0.00000E+00  2.00000E-12  1.0000E+00  2.00000E-12  1.0000E+00  0.0000E+00  0.0000E+00
    2625.0000      40.0000   -3625.0000   35.636  0.20498  0.00000E+00  2.00000E-12  1.0000E+00  2.00000E-12  1.0000E+00  0.0000E+00  0.0000E+00
    2775.0000      40.0000   -3625.0000   61.727  0.20513  0.00000E+00  2.00000E-12  1.0000E+00  2.00000E-12  1.0000E+00  0.0000E+00  0.0000E+00
      75.0000      40.0000   -3375.0000   61.091  0.20519  0.00000E+00  2.00000E-12  1.0000E+00  2.00000E-12  1.0000E+00  0.0000E+00  0.0000E+00
     225.0000      40.0000   -3375.0000   40.557  0.20506  0.00000E+00  2.00000E-12  1.0000E+00  2.00000E-12  1.0000E+00  0.0000E+00  0.0000E+00
     375.0000      40.0000   -3375.0000   33.208  0.20502  0.00000E+00  2.00000E-12  1.0000E+00  2.00000E-12  1.0000E+00  0.0000E+00  0.0000E+00
     525.0000      40.0000   -3375.0000   28.390  0.20499  0.00000E+00  2.00000E-12  1.0000E+00  2.00000E-12  1.0000E+00  0.0000E+00  0.0000E+00
     675.0000      40.0000   -3375.0000   27.960  0.20499  0.00000E+00  2.00000E-12  1.0000E+00  2.00000E-12  1.0000E+00  0.0000E+00  0.0000E+00
     825.0000      40.0000   -3375.0000   35.211  0.20503  0.00000E+00  2.00000E-12  1.0000E+00  2.00000E-12  1.0000E+00  0.0000E+00  0.0000E+00
     975.0000      40.0000   -3375.0000   51.152  0.20513  0.00000E+00  2.00000E-12  1.0000E+00  2.00000E-12  1.0000E+00  0.0000E+00  0.0000E+00
    1125.0000      40.0000   -3375.0000   66.188  0.20522  0.00000E+00  2.00000E-12  1.0000E+00  2.00000E-12  1.0000E+00  0.0000E+00  0.0000E+00
    1275.0000      40.0000   -3375.0000   51.969  0.20513  0.00000E+00  2.00000E-12  1.0000E+00  2.00000E-12  1.0000E+00  0.0000E+00  0.0000E+00
    1425.0000      40.0000   -3375.0000   36.901  0.20504  0.00000E+00  2.00000E-12  1.0000E+00  2.00000E-12  1.0000E+00  0.0000E+00  0.0000E+00
    1575.0000      40.0000   -3375.0000   32.847  0.20502  0.00000E+00  2.00000E-12  1.0000E+00  2.00000E-12  1.0000E+00  0.0000E+00  0.0000E+00
    1725.0000      40.0000   -3375.0000   29.634  0.20500  0.00000E+00  2.00000E-12  1.0000E+00  2.00000E-12  1.0000E+00  0.0000E+00  0.0000E+00
    1875.0000      40.0000   -3375.0000   26.552  0.20498  0.00000E+00  2.00000E-12  1.0000E+00  2.00000E-12  1.0000E+00  0.0000E+00  0.0000E+00
    2025.0000      40.0000   -3375.0000   24.209  0.20497  0.00000E+00  2.00000E-12  1.0000E+00  2.00000E-12  1.0000E+00  0.0000E+00  0.0000E+00
    2175.0000      40.0000   -3375.0000   24.556  0.20497  0.00000E+00  2.00000E-12  1.0000E+00  2.00000E-12  1.0000E+00  0.0000E+00  0.0000E+00
    2325.0000      40.0000   -3375.0000   28.299  0.20499  0.00000E+00  2.00000E-12  1.0000E+00  2.00000E-12  1.0000E+00  0.0000E+00  0.0000E+00
    2475.0000      40.0000   -3375.0000   32.846  0.20502  0.00000E+00  2.00000E-12  1.0000E+00  2.00000E-12  1.0000E+00  0.0000E+00  0.0000E+00
    2625.0000      40.0000   -3375.0000   37.248  0.20505  0.00000E+00  2.00000E-12  1.0000E+00  2.00000E-12  1.0000E+00  0.0000E+00  0.0000E+00
    2775.0000      40.0000   -3375.0000   61.410  0.20519  0.00000E+00  2.00000E-12  1.0000E+00  2.00000E-12  1.0000E+00  0.0000E+00  0.0000E+00
      75.0000      40.0000   -3125.0000   61.125  0.20525  0.00000E+00  2.00000E-12  1.0000E+00  2.00000E-12  1.0000E+00  0.0000E+00  0.0000E+00
     225.0000      40.0000   -3125.0000   44.524  0.20515  0.00000E+00  2.00000E-12  1.0000E+00  2.00000E-12  1.0000E+00  0.0000E+00  0.0000E+00
     375.0000      40.0000   -3125.0000   34.469  0.20509  0.00000E+00  2.00000E-12  1.0000E+00  2.00000E-12  1.0000E+00  0.0000E+00  0.0000E+00
     525.0000      40.0000   -3125.0000   28.655  0.20505  0.00000E+00  2.00000E-12  1.0000E+00  2.00000E-12  1.0000E+00  0.0000E+00  0.0000E+00
     675.0000      40.0000   -3125.0000   28.004  0.20505  0.00000E+00  2.00000E-12  1.0000E+00  2.00000E-12  1.0000E+00  0.0000E+00  0.0000E+00
     825.0000      40.0000   -3125.0000   35.355  0.20510  0.00000E+00  2.00000E-12  1.0000E+00  2.00000E-12  1.0000E+00  0.0000E+00  0.0000E+00
     975.0000      40.0000   -3125.0000   50.912  0.20519  0.00000E+00  2.00000E-12  1.0000E+00  2.00000E-12  1.0000E+00  0.0000E+00  0.0000E+00
    1125.0000      40.0000   -3125.0000   65.610  0.20528  0.00000E+00  2.00000E-12  1.0000E+00  2.00000E-12  1.0000E+00  0.0000E+00  0.0000E+00
    1275.0000      40.0000   -3125.0000   55.328  0.20522  0.00000E+00  2.00000E-12  1.0000E+00  2.00000E-12  1.0000E+00  0.0000E+00  0.0000E+00
    1425.0000      40.0000   -3125.0000   41.559  0.20513  0.00000E+00  2.00000E-12  1.0000E+00  2.00000E-12  1.0000E+00  0.0000E+00  0.0000E+00
    1575.0000      40.0000   -3125.0000   35.695  0.20510  0.00000E+00  2.00000E-12  1.0000E+00  2.00000E-12  1.0000E+00  0.0000E+00  0.0000E+00
    1725.0000      40.0000   -3125.0000   31.474  0.20507  0.00000E+00  2.00000E-12  1.0000E+00  2.00000E-12  1.0000E+00  0.0000E+00  0.0000E+00
    1875.0000      40.0000   -3125.0000   27.458  0.20505  0.00000E+00  2.00000E-12  1.0000E+00  2.00000E-12  1.0000E+00  0.0000E+00  0.0000E+00
    2025.0000      40.0000   -3125.0000   24.532  0.20503  0.00000E+00  2.00000E-12  1.0000E+00  2.00000E-12  1.0000E+00  0.0000E+00  0.0000E+00
    2175.0000      40.0000   -3125.0000   24.828  0.20503  0.00000E+00  2.00000E-12  1.0000E+00  2.00000E-12  1.0000E+00  0.0000E+00  0.0000E+00
    2325.0000      40.0000   -3125.0000   29.507  0.20506  0.00000E+00  2.00000E-12  1.0000E+00  2.00000E-12  1.0000E+00  0.0000E+00  0.0000E+00
    2475.0000      40.0000   -3125.0000   35.784  0.20510  0.00000E+00  2.00000E-12  1.0000E+00  2.00000E-12  1.0000E+00  0.0000E+00  0.0000E+00
    2625.0000      40.0000   -3125.0000   46.682  0.20517  0.00000E+00  2.00000E-12  1.0000E+00  2.00000E-12  1.0000E+00  0.0000E+00  0.0000E+00
    2775.0000      40.0000   -3125.0000   61.550  0.20526  0.00000E+00  2.00000E-12  1.0000E+00  2.00000E-12  1.0000E+00  0.0000E+00  0.0000E+00
      75.0000      40.0000   -2875.0000   61.202  0.20532  0.00000E+00  2.00000E-12  1.0000E+00  2.00000E-12  1.0000E+00  0.0000E+00  0.0000E+00
     225.0000      40.0000   -2875.0000   46.591  0.20523  0.00000E+00  2.00000E-12  1.0000E+00  2.00000E-12  1.0000E+00  0.0000E+00  0.0000E+00
     375.0000      40.0000   -2875.0000   35.557  0.20516  0.00000E+00  2.00000E-12  1.0000E+00  2.00000E-12  1.0000E+00  0.0000E+00  0.0000E+00
     525.0000      40.0000   -2875.0000   28.918  0.20512  0.00000E+00  2.00000E-12  1.0000E+00  2.00000E-12  1.0000E+00  0.0000E+00  0.0000E+00
     675.0000      40.0000   -2875.0000   27.980  0.20512  0.00000E+00  2.00000E-12  1.0000E+00  2.00000E-12  1.0000E+00  0.0000E+00  0.0000E+00
     825.0000      40.0000   -2875.0000   35.197  0.20516  0.00000E+00  2.00000E-12  1.0000E+00  2.00000E-12  1.0000E+00  0.0000E+00  0.0000E+00
     975.0000      40.0000   -2875.0000   50.292  0.20525  0.00000E+00  2.00000E-12  1.0000E+00  2.00000E-12  1.0000E+00  0.0000E+00  0.0000E+00
    1125.0000      40.0000   -2875.0000   64.716  0.20534  0.00000E+00  2.00000E-12  1.0000E+00  2.00000E-12  1.0000E+00  0.0000E+00  0.0000E+00
    1275.0000      40.0000   -2875.0000   57.981  0.20530  0.00000E+00  2.00000E-12  1.0000E+00  2.00000E-12  1.0000E+00  0.0000E+00  0.0000E+00
    1425.0000      40.0000   -2875.0000   48.992  0.20524  0.00000E+00  2.00000E-12  1.0000E+00  2.00000E-12  1.0000E+00  0.0000E+00  0.0000E+00
    1575.0000      40.0000   -2875.0000   38.832  0.20518  0.00000E+00  2.00000E-12  1.0000E+00  2.00000E-12  1.0000E+00  0.0000E+00  0.0000E+00
    1725.0000      40.0000   -2875.0000   33.415  0.20515  0.00000E+00  2.00000E-12  1.0000E+00  2.00000E-12  1.0000E+00  0.0000E+00  0.0000E+00
    1875.0000      40.0000   -2875.0000   28.410  0.20512  0.00000E+00  2.00000E-12  1.0000E+00  2.00000E-12  1.0000E+00  0.0000E+00  0.0000E+00
    2025.0000      40.0000   -2875.0000   24.858  0.20510  0.00000E+00  2.00000E-12  1.0000E+00  2.00000E-12  1.0000E+00  0.0000E+00  0.0000E+00
    2175.0000      40.0000   -2875.0000   25.088  0.20510  0.00000E+00  2.00000E-12  1.0000E+00  2.00000E-12  1.0000E+00  0.0000E+00  0.0000E+00
    2325.0000      40.0000   -2875.0000   30.443  0.20513  0.00000E+00  2.00000E-12  1.0000E+00  2.00000E-12  1.0000E+00  0.0000E+00  0.0000E+00
    2475.0000      40.0000   -2875.0000   38.101  0.20518  0.00000E+00  2.00000E-12  1.0000E+00  2.00000E-12  1.0000E+00  0.0000E+00  0.0000E+00
    2625.0000      40.0000   -2875.0000   48.697  0.20524  0.00000E+00  2.00000E-12  1.0000E+00  2.00000E-12  1.0000E+00  0.0000E+00  0.0000E+00
    2775.0000      40.0000   -2875.0000   61.715  0.20532  0.00000E+00  2.00000E-12  1.0000E+00  2.00000E-12  1.0000E+00  0.0000E+00  0.0000E+00
      75.0000      40.0000   -2625.0000   61.297  0.20539  0.00000E+00  2.00000E-12  1.0000E+00  2.00000E-12  1.0000E+00  0.0000E+00  0.0000E+00
     225.0000      40.0000   -2625.0000   47.616  0.20531  0.00000E+00  2.00000E-12  1.0000E+00  2.00000E-12  1.0000E+00  0.0000E+00  0.0000E+00
     375.0000      40.0000   -2625.0000   36.443  0.20524  0.00000E+00  2.00000E-12  1.0000E+00  2.00000E-12  1.0000E+00  0.0000E+00  0.0000E+00
     525.0000      40.0000   -2625.0000   29.163  0.20519  0.00000E+00  2.00000E-12  1.0000E+00  2.00000E-12  1.0000E+00  0.0000E+00  0.0000E+00
     675.0000      40.0000   -2625.0000   27.981  0.20518  0.00000E+00  2.00000E-12  1.0000E+00  2.00000E-12  1.0000E+00  0.0000E+00  0.0000E+00
     825.0000      40.0000   -2625.0000   35.101  0.20523  0.00000E+00  2.00000E-12  1.0000E+00  2.00000E-12  1.0000E+00  0.0000E+00  0.0000E+00
     975.0000      40.0000   -2625.0000   49.438  0.20532  0.00000E+00  2.00000E-12  1.0000E+00  2.00000E-12  1.0000E+00  0.0000E+00  0.0000E+00
    1125.0000      40.0000   -2625.0000   63.701  0.20540  0.00000E+00  2.00000E-12  1.0000E+00  2.00000E-12  1.0000E+00  0.0000E+00  0.0000E+00
    1275.0000      40.0000   -2625.0000   59.579  0.20538  0.00000E+00  2.00000E-12  1.0000E+00  2.00000E-12  1.0000E+00  0.0000E+00  0.0000E+00
    1425.0000      40.0000   -2625.0000   53.043  0.20534  0.00000E+00  2.00000E-12  1.0000E+00  2.00000E-12  1.0000E+00  0.0000E+00  0.0000E+00
    1575.0000      40.0000   -2625.0000   42.328  0.20527  0.00000E+00  2.00000E-12  1.0000E+00  2.00000E-12  1.0000E+00  0.0000E+00  0.0000E+00
    1725.0000      40.0000   -2625.0000   35.461  0.20523  0.00000E+00  2.00000E-12  1.0000E+00  2.00000E-12  1.0000E+00  0.0000E+00  0.0000E+00
    1875.0000      40.0000   -2625.0000   29.408  0.20519  0.00000E+00  2.00000E-12  1.0000E+00  2.00000E-12  1.0000E+00  0.0000E+00  0.0000E+00
    2025.0000      40.0000   -2625.0000   25.164  0.20517  0.00000E+00  2.00000E-12  1.0000E+00  2.00000E-12  1.0000E+00  0.0000E+00  0.0000E+00
    2175.0000      40.0000   -2625.0000   25.328  0.20517  0.00000E+00  2.00000E-12  1.0000E+00  2.00000E-12  1.0000E+00  0.0000E+00  0.0000E+00
    2325.0000      40.0000   -2625.0000   31.005  0.20520  0.00000E+00  2.00000E-12  1.0000E+00  2.00000E-12  1.0000E+00  0.0000E+00  0.0000E+00
    2475.0000      40.0000   -2625.0000   39.815  0.20526  0.00000E+00  2.00000E-12  1.0000E+00  2.00000E-12  1.0000E+00  0.0000E+00  0.0000E+00
    2625.0000      40.0000   -2625.0000   50.400  0.20532  0.00000E+00  2.00000E-12  1.0000E+00  2.00000E-12  1.0000E+00  0.0000E+00  0.0000E+00
    2775.0000      40.0000   -2625.0000   61.908  0.20539  0.00000E+00  2.00000E-12  1.0000E+00  2.00000E-12  1.0000E+00  0.0000E+00  0.0000E+00
      75.0000      40.0000   -2375.0000   61.409  0.20546  0.00000E+00  2.00000E-12  1.0000E+00  2.00000E-12  1.0000E+00  0.0000E+00  0.0000E+00
     225.0000      40.0000   -2375.0000   48.454  0.20538  0.00000E+00  2.00000E-12  1.0000E+00  2.00000E-12  1.0000E+00  0.0000E+00  0.0000E+00
     375.0000      40.0000   -2375.0000   37.185  0.20531  0.00000E+00  2.00000E-12  1.0000E+00  2.00000E-12  1.0000E+00  0.0000E+00  0.0000E+00
     525.0000      40.0000   -2375.0000   29.384  0.20526  0.00000E+00  2.00000E-12  1.0000E+00  2.00000E-12  1.0000E+00  0.0000E+00  0.0000E+00
     675.0000      40.0000   -2375.0000   28.044  0.20526  0.00000E+00  2.00000E-12  1.0000E+00  2.00000E-12  1.0000E+00  0.0000E+00  0.0000E+00
     825.0000      40.0000   -2375.0000   35.088  0.20530  0.00000E+00  2.00000E-12  1.0000E+00  2.00000E-12  1.0000E+00  0.0000E+00  0.0000E+00
     975.0000      40.0000   -2375.0000   48.457  0.20538  0.00000E+00  2.00000E-12  1.0000E+00  2.00000E-12  1.0000E+00  0.0000E+00  0.0000E+00
    1125.0000      40.0000   -2375.0000   62.702  0.20547  0.00000E+00  2.00000E-12  1.0000E+00  2.00000E-12  1.0000E+00  0.0000E+00  0.0000E+00
    1275.0000      40.0000   -2375.0000   60.502  0.20545  0.00000E+00  2.00000E-12  1.0000E+00  2.00000E-12  1.0000E+00  0.0000E+00  0.0000E+00
    1425.0000      40.0000   -2375.0000   55.432  0.20542  0.00000E+00  2.00000E-12  1.0000E+00  2.00000E-12  1.0000E+00  0.0000E+00  0.0000E+00
    1575.0000      40.0000   -2375.0000   47.463  0.20537  0.00000E+00  2.00000E-12  1.0000E+00  2.00000E-12  1.0000E+00  0.0000E+00  0.0000E+00
    1725.0000      40.0000   -2375.0000   37.613  0.20531  0.00000E+00  2.00000E-12  1.0000E+00  2.00000E-12  1.0000E+00  0.0000E+00  0.0000E+00
    1875.0000      40.0000   -2375.0000   30.449  0.20527  0.00000E+00  2.00000E-12  1.0000E+00  2.00000E-12  1.0000E+00  0.0000E+00  0.0000E+00
    2025.0000      40.0000   -2375.0000   25.450  0.20524  0.00000E+00  2.00000E-12  1.0000E+00  2.00000E-12  1.0000E+00  0.0000E+00  0.0000E+00