Title="TOUGHREACT V3.85omp : Aqueous Total & Species Concentrations in mol/kg H2O, Surface & Exchanged Species in mol/kg H2O, Dry blocks in mol/L medium"
Variables= "X(m)"   "Y(m)"   "Z(m)"   "P(bar)"     "T(C)"   "SatGas"   "SatLiq"     "aH2O"       "pH"   "IonStr"    "EC(uS_cm)"        "t_na+"        "t_cl-"      "t_hco3-"       "t_ca+2"      "t_so4-2"       "t_mg+2"         "t_k+"        "t_br-"
Zone T= "0.00000000E+00 sec" I=     399 J=       1 K=       1 F=Point SolutionTime= 0.00000000E+00
      75.0000      40.0000   -4875.0000  4.78042E+02  244.375  0.00000E+00  1.00000E+00  0.98475  6.4862  6.0011E-01  0.0000E+00  4.8540E-01  5.6570E-01  5.8630E-04  5.8620E-02  2.9260E-02  5.2880E-03  1.0580E-02  1.0000E-04
     225.0000      40.0000   -4875.0000  4.78042E+02  244.375  0.00000E+00  1.00000E+00  0.98475  6.4862  6.0011E-01  0.0000E+00  4.8540E-01  5.6570E-01  5.8630E-04  5.8620E-02  2.9260E-02  5.2880E-03  1.0580E-02  1.0000E-04
     375.0000      40.0000   -4875.0000  4.78042E+02  244.375  0.00000E+00  1.00000E+00  0.98475  6.4862  6.0011E-01  0.0000E+00  4.8540E-01  5.6570E-01  5.8630E-04  5.8620E-02  2.9260E-02  5.2880E-03  1.0580E-02  1.0000E-04
     525.0000      40.0000   -4875.0000  4.78042E+02  244.375  0.00000E+00  1.00000E+00  0.98475  6.4862  6.0011E-01  0.0000E+00  4.8540E-01  5.6570E-01  5.8630E-04  5.8620E-02  2.9260E-02  5.2880E-03  1.0580E-02  1.0000E-04
     675.0000      40.0000   -4875.0000  4.78042E+02  244.375  0.00000E+00  1.00000E+00  0.98475  6.4862  6.0011E-01  0.0000E+00  4.8540E-01  5.6570E-01  5.8630E-04  5.8620E-02  2.9260E-02  5.2880E-03  1.0580E-02  1.0000E-04
     825.0000      40.0000   -4875.0000  4.78042E+02  244.375  0.00000E+00  1.00000E+00  0.98475  6.4862  6.0011E-01  0.0000E+00  4.8540E-01  5.6570E-01  5.8630E-04  5.8620E-02  2.9260E-02  5.2880E-03  1.0580E-02  1.0000E-04
     975.0000      40.0000   -4875.0000  4.78042E+02  244.375  0.00000E+00  1.00000E+00  0.98475  6.4862  6.0011E-01  0.0000E+00  4.8540E-01  5.6570E-01  5.8630E-04  5.8620E-02  2.9260E-02  5.2880E-03  1.0580E-02  1.0000E-04
    1125.0000      40.0000   -4875.0000  4.78042E+02  244.375  0.00000E+00  1.00000E+00  0.98475  6.4862  6.0011E-01  0.0000E+00  4.8540E-01  5.6570E-01  5.8630E-04  5.8620E-02  2.9260E-02  5.2880E-03  1.0580E-02  1.0000E-04
    1275.0000      40.0000   -4875.0000  4.78042E+02  244.375  0.00000E+00  1.00000E+00  0.98475  6.4862  6.0011E-01  0.0000E+00  4.8540E-01  5.6570E-01  5.8630E-04  5.8620E-02  2.9260E-02  5.2880E-03  1.0580E-02  1.0000E-04
    1425.0000      40.0000   -4875.0000  4.78042E+02  244.375  0.00000E+00  1.00000E+00  0.98475  6.4862  6.0011E-01  0.0000E+00  4.8540E-01  5.6570E-01  5.8630E-04  5.8620E-02  2.9260E-02  5.2880E-03  1.0580E-02  1.0000E-04
    1575.0000      40.0000   -4875.0000  4.78042E+02  244.375  0.00000E+00  1.00000E+00  0.98475  6.4862  6.0011E-01  0.0000E+00  4.8540E-01  5.6570E-01  5.8630E-04  5.8620E-02  2.9260E-02  5.2880E-03  1.0580E-02  1.0000E-04
    1725.0000      40.0000   -4875.0000  4.78042E+02  244.375  0.00000E+00  1.00000E+00  0.98475  6.4862  6.0011E-01  0.0000E+00  4.8540E-01  5.6570E-01  5.8630E-04  5.8620E-02  2.9260E-02  5.2880E-03  1.0580E-02  1.0000E-04
    1875.0000      40.0000   -4875.0000  4.78042E+02  244.375  0.00000E+00  1.00000E+00  0.98475  6.4862  6.0011E-01  0.0000E+00  4.8540E-01  5.6570E-01  5.8630E-04  5.8620E-02  2.9260E-02  5.2880E-03  1.0580E-02  1.0000E-04
    2025.0000      40.0000   -4875.0000  4.78042E+02  244.375  0.00000E+00  1.00000E+00  0.98475  6.4862  6.0011E-01  0.0000E+00  4.8540E-01  5.6570E-01  5.8630E-04  5.8620E-02  2.9260E-02  5.2880E-03  1.0580E-02  1.0000E-04
    2175.0000      40.0000   -4875.0000  4.78042E+02  244.375  0.00000E+00  1.00000E+00  0.98475  6.4862  6.0011E-01  0.0000E+00  4.8540E-01  5.6570E-01  5.8630E-04  5.8620E-02  2.9260E-02  5.2880E-03  1.0580E-02  1.0000E-04
    2325.0000      40.0000   -4875.0000  4.78042E+02  244.375  0.00000E+00  1.00000E+00  0.98475  6.4862  6.0011E-01  0.0000E+00  4.8540E-01  5.6570E-01  5.8630E-04  5.8620E-02  2.9260E-02  5.2880E-03  1.0580E-02  1.0000E-04
    2475.0000      40.0000   -4875.0000  4.78042E+02  244.375  0.00000E+00  1.00000E+00  0.98475  6.4862  6.0011E-01  0.0000E+00  4.8540E-01  5.6570E-01  5.8630E-04  5.8620E-02  2.9260E-02  5.2880E-03  1.0580E-02  1.0000E-04
    2625.0000      40.0000   -4875.0000  4.78042E+02  244.375  0.00000E+00  1.00000E+00  0.98475  6.4862  6.0011E-01  0.0000E+00  4.8540E-01  5.6570E-01  5.8630E-04  5.8620E-02  2.9260E-02  5.2880E-03  1.0580E-02  1.0000E-04
    2775.0000      40.0000   -4875.0000  4.78042E+02  244.375  0.00000E+00  1.00000E+00  0.98475  6.4862  6.0011E-01  0.0000E+00  4.8540E-01  5.6570E-01  5.8630E-04  5.8620E-02  2.9260E-02  5.2880E-03  1.0580E-02  1.0000E-04
      75.0000      40.0000   -4625.0000  4.53501E+02  242.749  0.00000E+00  1.00000E+00  0.98475  6.4862  6.0011E-01  0.0000E+00  4.8540E-01  5.6570E-01  5.8630E-04  5.8620E-02  2.9260E-02  5.2880E-03  1.0580E-02  1.0000E-04
     225.0000      40.0000   -4625.0000  4.53507E+02  242.719  0.00000E+00  1.00000E+00  0.98475  6.4862  6.0011E-01  0.0000E+00  4.8540E-01  5.6570E-01  5.8630E-04  5.8620E-02  2.9260E-02  5.2880E-03  1.0580E-02  1.0000E-04
     375.0000      40.0000   -4625.0000  4.53513E+02  242.680  0.00000E+00  1.00000E+00  0.98475  6.4862  6.0011E-01  0.0000E+00  4.8540E-01  5.6570E-01  5.8630E-04  5.8620E-02  2.9260E-02  5.2880E-03  1.0580E-02  1.0000E-04
     525.0000      40.0000   -4625.0000  4.53518E+02  242.654  0.00000E+00  1.00000E+00  0.98475  6.4862  6.0011E-01  0.0000E+00  4.8540E-01  5.6570E-01  5.8630E-04  5.8620E-02  2.9260E-02  5.2880E-03  1.0580E-02  1.0000E-04
     675.0000      40.0000   -4625.0000  4.53518E+02  242.655  0.00000E+00  1.00000E+00  0.98475  6.4862  6.0011E-01  0.0000E+00  4.8540E-01  5.6570E-01  5.8630E-04  5.8620E-02  2.9260E-02  5.2880E-03  1.0580E-02  1.0000E-04
     825.0000      40.0000   -4625.0000  4.53514E+02  242.685  0.00000E+00  1.00000E+00  0.98475  6.4862  6.0011E-01  0.0000E+00  4.8540E-01  5.6570E-01  5.8630E-04  5.8620E-02  2.9260E-02  5.2880E-03  1.0580E-02  1.0000E-04
     975.0000      40.0000   -4625.0000  4.53508E+02  242.731  0.00000E+00  1.00000E+00  0.98475  6.4862  6.0011E-01  0.0000E+00  4.8540E-01  5.6570E-01  5.8630E-04  5.8620E-02  2.9260E-02  5.2880E-03  1.0580E-02  1.0000E-04
    1125.0000      40.0000   -4625.0000  4.53504E+02  242.764  0.00000E+00  1.00000E+00  0.98475  6.4862  6.0011E-01  0.0000E+00  4.8540E-01  5.6570E-01  5.8630E-04  5.8620E-02  2.9260E-02  5.2880E-03  1.0580E-02  1.0000E-04
    1275.0000      40.0000   -4625.0000  4.53508E+02  242.764  0.00000E+00  1.00000E+00  0.98475  6.4862  6.0011E-01  0.0000E+00  4.8540E-01  5.6570E-01  5.8630E-04  5.8620E-02  2.9260E-02  5.2880E-03  1.0580E-02  1.0000E-04
    1425.0000      40.0000   -4625.0000  4.53518E+02  242.735  0.00000E+00  1.00000E+00  0.98475  6.4862  6.0011E-01  0.0000E+00  4.8540E-01  5.6570E-01  5.8630E-04  5.8620E-02  2.9260E-02  5.2880E-03  1.0580E-02  1.0000E-04
    1575.0000      40.0000   -4625.0000  4.53531E+02  242.695  0.00000E+00  1.00000E+00  0.98475  6.4862  6.0011E-01  0.0000E+00  4.8540E-01  5.6570E-01  5.8630E-04  5.8620E-02  2.9260E-02  5.2880E-03  1.0580E-02  1.0000E-04
    1725.0000      40.0000   -4625.0000  4.53544E+02  242.654  0.00000E+00  1.00000E+00  0.98475  6.4862  6.0011E-01  0.0000E+00  4.8540E-01  5.6570E-01  5.8630E-04  5.8620E-02  2.9260E-02  5.2880E-03  1.0580E-02  1.0000E-04
    1875.0000      40.0000   -4625.0000  4.53554E+02  242.622  0.00000E+00  1.00000E+00  0.98475  6.4862  6.0011E-01  0.0000E+00  4.8540E-01  5.6570E-01  5.8630E-04  5.8620E-02  2.9260E-02  5.2880E-03  1.0580E-02  1.0000E-04
    2025.0000      40.0000   -4625.0000  4.53559E+02  242.605  0.00000E+00  1.00000E+00  0.98475  6.4862  6.0011E-01  0.0000E+00  4.8540E-01  5.6570E-01  5.8630E-04  5.8620E-02  2.9260E-02  5.2880E-03  1.0580E-02  1.0000E-04
    2175.0000      40.0000   -4625.0000  4.53558E+02  242.610  0.00000E+00  1.00000E+00  0.98475  6.4862  6.0011E-01  0.0000E+00  4.8540E-01  5.6570E-01  5.8630E-04  5.8620E-02  2.9260E-02  5.2880E-03  1.0580E-02  1.0000E-04
    2325.0000      40.0000   -4625.0000  4.53552E+02  242.636  0.00000E+00  1.00000E+00  0.98475  6.4862  6.0011E-01  0.0000E+00  4.8540E-01  5.6570E-01  5.8630E-04  5.8620E-02  2.9260E-02  5.2880E-03  1.0580E-02  1.0000E-04
    2475.0000      40.0000   -4625.0000  4.53542E+02  242.677  0.00000E+00  1.00000E+00  0.98475  6.4862  6.0011E-01  0.0000E+00  4.8540E-01  5.6570E-01  5.8630E-04  5.8620E-02  2.9260E-02  5.2880E-03  1.0580E-02  1.0000E-04
    2625.0000      40.0000   -4625.0000  4.53532E+02  242.720  0.00000E+00  1.00000E+00  0.98475  6.4862  6.0011E-01  0.0000E+00  4.8540E-01  5.6570E-01  5.8630E-04  5.8620E-02  2.9260E-02  5.2880E-03  1.0580E-02  1.0000E-04
    2775.0000      40.0000   -4625.0000  4.53526E+02  242.751  0.00000E+00  1.00000E+00  0.98475  6.4862  6.0011E-01  0.0000E+00  4.8540E-01  5.6570E-01  5.8630E-04  5.8620E-02  2.9260E-02  5.2880E-03  1.0580E-02  1.0000E-04
      75.0000      40.0000   -4375.0000  4.28874E+02  235.394  0.00000E+00  1.00000E+00  0.98475  6.4862  6.0011E-01  0.0000E+00  4.8540E-01  5.6570E-01  5.8630E-04  5.8620E-02  2.9260E-02  5.2880E-03  1.0580E-02  1.0000E-04
     225.0000      40.0000   -4375.0000  4.28891E+02  235.188  0.00000E+00  1.00000E+00  0.98475  6.4862  6.0011E-01  0.0000E+00  4.8540E-01  5.6570E-01  5.8630E-04  5.8620E-02  2.9260E-02  5.2880E-03  1.0580E-02  1.0000E-04
     375.0000      40.0000   -4375.0000  4.28912E+02  234.939  0.00000E+00  1.00000E+00  0.98475  6.4862  6.0011E-01  0.0000E+00  4.8540E-01  5.6570E-01  5.8630E-04  5.8620E-02  2.9260E-02  5.2880E-03  1.0580E-02  1.0000E-04
     525.0000      40.0000   -4375.0000  4.28927E+02  234.773  0.00000E+00  1.00000E+00  0.98475  6.4862  6.0011E-01  0.0000E+00  4.8540E-01  5.6570E-01  5.8630E-04  5.8620E-02  2.9260E-02  5.2880E-03  1.0580E-02  1.0000E-04
     675.0000      40.0000   -4375.0000  4.28927E+02  234.767  0.00000E+00  1.00000E+00  0.98475  6.4862  6.0011E-01  0.0000E+00  4.8540E-01  5.6570E-01  5.8630E-04  5.8620E-02  2.9260E-02  5.2880E-03  1.0580E-02  1.0000E-04
     825.0000      40.0000   -4375.0000  4.28912E+02  234.958  0.00000E+00  1.00000E+00  0.98475  6.4862  6.0011E-01  0.0000E+00  4.8540E-01  5.6570E-01  5.8630E-04  5.8620E-02  2.9260E-02  5.2880E-03  1.0580E-02  1.0000E-04
     975.0000      40.0000   -4375.0000  4.28890E+02  235.260  0.00000E+00  1.00000E+00  0.98475  6.4862  6.0011E-01  0.0000E+00  4.8540E-01  5.6570E-01  5.8630E-04  5.8620E-02  2.9260E-02  5.2880E-03  1.0580E-02  1.0000E-04
    1125.0000      40.0000   -4375.0000  4.28878E+02  235.489  0.00000E+00  1.00000E+00  0.98475  6.4862  6.0011E-01  0.0000E+00  4.8540E-01  5.6570E-01  5.8630E-04  5.8620E-02  2.9260E-02  5.2880E-03  1.0580E-02  1.0000E-04
    1275.0000      40.0000   -4375.0000  4.28886E+02  235.479  0.00000E+00  1.00000E+00  0.98475  6.4862  6.0011E-01  0.0000E+00  4.8540E-01  5.6570E-01  5.8630E-04  5.8620E-02  2.9260E-02  5.2880E-03  1.0580E-02  1.0000E-04
    1425.0000      40.0000   -4375.0000  4.28911E+02  235.300  0.00000E+00  1.00000E+00  0.98475  6.4862  6.0011E-01  0.0000E+00  4.8540E-01  5.6570E-01  5.8630E-04  5.8620E-02  2.9260E-02  5.2880E-03  1.0580E-02  1.0000E-04
    1575.0000      40.0000   -4375.0000  4.28942E+02  235.079  0.00000E+00  1.00000E+00  0.98475  6.4862  6.0011E-01  0.0000E+00  4.8540E-01  5.6570E-01  5.8630E-04  5.8620E-02  2.9260E-02  5.2880E-03  1.0580E-02  1.0000E-04
    1725.0000      40.0000   -4375.0000  4.28973E+02  234.868  0.00000E+00  1.00000E+00  0.98475  6.4862  6.0011E-01  0.0000E+00  4.8540E-01  5.6570E-01  5.8630E-04  5.8620E-02  2.9260E-02  5.2880E-03  1.0580E-02  1.0000E-04
    1875.0000      40.0000   -4375.0000  4.28997E+02  234.695  0.00000E+00  1.00000E+00  0.98475  6.4862  6.0011E-01  0.0000E+00  4.8540E-01  5.6570E-01  5.8630E-04  5.8620E-02  2.9260E-02  5.2880E-03  1.0580E-02  1.0000E-04
    2025.0000      40.0000   -4375.0000  4.29009E+02  234.599  0.00000E+00  1.00000E+00  0.98475  6.4862  6.0011E-01  0.0000E+00  4.8540E-01  5.6570E-01  5.8630E-04  5.8620E-02  2.9260E-02  5.2880E-03  1.0580E-02  1.0000E-04
    2175.0000      40.0000   -4375.0000  4.29007E+02  234.627  0.00000E+00  1.00000E+00  0.98475  6.4862  6.0011E-01  0.0000E+00  4.8540E-01  5.6570E-01  5.8630E-04  5.8620E-02  2.9260E-02  5.2880E-03  1.0580E-02  1.0000E-04
    2325.0000      40.0000   -4375.0000  4.28991E+02  234.771  0.00000E+00  1.00000E+00  0.98475  6.4862  6.0011E-01  0.0000E+00  4.8540E-01  5.6570E-01  5.8630E-04  5.8620E-02  2.9260E-02  5.2880E-03  1.0580E-02  1.0000E-04
    2475.0000      40.0000   -4375.0000  4.28966E+02  234.994  0.00000E+00  1.00000E+00  0.98475  6.4862  6.0011E-01  0.0000E+00  4.8540E-01  5.6570E-01  5.8630E-04  5.8620E-02  2.9260E-02  5.2880E-03  1.0580E-02  1.0000E-04
    2625.0000      40.0000   -4375.0000  4.28938E+02  235.250  0.00000E+00  1.00000E+00  0.98475  6.4862  6.0011E-01  0.0000E+00  4.8540E-01  5.6570E-01  5.8630E-04  5.8620E-02  2.9260E-02  5.2880E-03  1.0580E-02  1.0000E-04
    2775.0000      40.0000   -4375.0000  4.28919E+02  235.446  0.00000E+00  1.00000E+00  0.98475  6.4862  6.0011E-01  0.0000E+00  4.8540E-01  5.6570E-01  5.8630E-04  5.8620E-02  2.9260E-02  5.2880E-03  1.0580E-02  1.0000E-04
      75.0000      40.0000   -4125.0000  4.03718E+02  204.310  0.00000E+00  1.00000E+00  0.98475  6.4862  6.0011E-01  0.0000E+00  4.8540E-01  5.6570E-01  5.8630E-04  5.8620E-02  2.9260E-02  5.2880E-03  1.0580E-02  1.0000E-04
     225.0000      40.0000   -4125.0000  4.03764E+02  203.012  0.00000E+00  1.00000E+00  0.98475  6.4862  6.0011E-01  0.0000E+00  4.8540E-01  5.6570E-01  5.8630E-04  5.8620E-02  2.9260E-02  5.2880E-03  1.0580E-02  1.0000E-04
     375.0000      40.0000   -4125.0000  4.03815E+02  201.642  0.00000E+00  1.00000E+00  0.98475  6.4862  6.0011E-01  0.0000E+00  4.8540E-01  5.6570E-01  5.8630E-04  5.8620E-02  2.9260E-02  5.2880E-03  1.0580E-02  1.0000E-04
     525.0000      40.0000   -4125.0000  4.03846E+02  200.763  0.00000E+00  1.00000E+00  0.98475  6.4862  6.0011E-01  0.0000E+00  4.8540E-01  5.6570E-01  5.8630E-04  5.8620E-02  2.9260E-02  5.2880E-03  1.0580E-02  1.0000E-04
     675.0000      40.0000   -4125.0000  4.03847E+02  200.626  0.00000E+00  1.00000E+00  0.98475  6.4862  6.0011E-01  0.0000E+00  4.8540E-01  5.6570E-01  5.8630E-04  5.8620E-02  2.9260E-02  5.2880E-03  1.0580E-02  1.0000E-04
     825.0000      40.0000   -4125.0000  4.03812E+02  201.639  0.00000E+00  1.00000E+00  0.98475  6.4862  6.0011E-01  0.0000E+00  4.8540E-01  5.6570E-01  5.8630E-04  5.8620E-02  2.9260E-02  5.2880E-03  1.0580E-02  1.0000E-04
     975.0000      40.0000   -4125.0000  4.03756E+02  203.401  0.00000E+00  1.00000E+00  0.98475  6.4862  6.0011E-01  0.0000E+00  4.8540E-01  5.6570E-01  5.8630E-04  5.8620E-02  2.9260E-02  5.2880E-03  1.0580E-02  1.0000E-04
    1125.0000      40.0000   -4125.0000  4.03718E+02  204.822  0.00000E+00  1.00000E+00  0.98475  6.4862  6.0011E-01  0.0000E+00  4.8540E-01  5.6570E-01  5.8630E-04  5.8620E-02  2.9260E-02  5.2880E-03  1.0580E-02  1.0000E-04
    1275.0000      40.0000   -4125.0000  4.03738E+02  204.613  0.00000E+00  1.00000E+00  0.98475  6.4862  6.0011E-01  0.0000E+00  4.8540E-01  5.6570E-01  5.8630E-04  5.8620E-02  2.9260E-02  5.2880E-03  1.0580E-02  1.0000E-04
    1425.0000      40.0000   -4125.0000  4.03794E+02  203.574  0.00000E+00  1.00000E+00  0.98475  6.4862  6.0011E-01  0.0000E+00  4.8540E-01  5.6570E-01  5.8630E-04  5.8620E-02  2.9260E-02  5.2880E-03  1.0580E-02  1.0000E-04
    1575.0000      40.0000   -4125.0000  4.03853E+02  202.594  0.00000E+00  1.00000E+00  0.98475  6.4862  6.0011E-01  0.0000E+00  4.8540E-01  5.6570E-01  5.8630E-04  5.8620E-02  2.9260E-02  5.2880E-03  1.0580E-02  1.0000E-04
    1725.0000      40.0000   -4125.0000  4.03905E+02  201.731  0.00000E+00  1.00000E+00  0.98475  6.4862  6.0011E-01  0.0000E+00  4.8540E-01  5.6570E-01  5.8630E-04  5.8620E-02  2.9260E-02  5.2880E-03  1.0580E-02  1.0000E-04
    1875.0000      40.0000   -4125.0000  4.03946E+02  200.982  0.00000E+00  1.00000E+00  0.98475  6.4862  6.0011E-01  0.0000E+00  4.8540E-01  5.6570E-01  5.8630E-04  5.8620E-02  2.9260E-02  5.2880E-03  1.0580E-02  1.0000E-04
    2025.0000      40.0000   -4125.0000  4.03968E+02  200.483  0.00000E+00  1.00000E+00  0.98475  6.4862  6.0011E-01  0.0000E+00  4.8540E-01  5.6570E-01  5.8630E-04  5.8620E-02  2.9260E-02  5.2880E-03  1.0580E-02  1.0000E-04
    2175.0000      40.0000   -4125.0000  4.03963E+02  200.614  0.00000E+00  1.00000E+00  0.98475  6.4862  6.0011E-01  0.0000E+00  4.8540E-01  5.6570E-01  5.8630E-04  5.8620E-02  2.9260E-02  5.2880E-03  1.0580E-02  1.0000E-04
    2325.0000      40.0000   -4125.0000  4.03933E+02  201.267  0.00000E+00  1.00000E+00  0.98475  6.4862  6.0011E-01  0.0000E+00  4.8540E-01  5.6570E-01  5.8630E-04  5.8620E-02  2.9260E-02  5.2880E-03  1.0580E-02  1.0000E-04
    2475.0000      40.0000   -4125.0000  4.03886E+02  202.251  0.00000E+00  1.00000E+00  0.98475  6.4862  6.0011E-01  0.0000E+00  4.8540E-01  5.6570E-01  5.8630E-04  5.8620E-02  2.9260E-02  5.2880E-03  1.0580E-02  1.0000E-04
    2625.0000      40.0000   -4125.0000  4.03829E+02  203.517  0.00000E+00  1.00000E+00  0.98475  6.4862  6.0011E-01  0.0000E+00  4.8540E-01  5.6570E-01  5.8630E-04  5.8620E-02  2.9260E-02  5.2880E-03  1.0580E-02  1.0000E-04
    2775.0000      40.0000   -4125.0000  4.03781E+02  204.670  0.00000E+00  1.00000E+00  0.98475  6.4862  6.0011E-01  0.0000E+00  4.8540E-01  5.6570E-01  5.8630E-04  5.8620E-02  2.9260E-02  5.2880E-03  1.0580E-02  1.0000E-04
      75.0000      40.0000   -3875.0000  3.78598E+02   68.772  0.00000E+00  1.00000E+00  0.98078  8.0979  6.5584E-01  0.0000E+00  4.8540E-01  5.6570E-01  2.4060E-03  1.0660E-02  2.9260E-02  5.5070E-02  1.0580E-02  1.0000E-07
     225.0000      40.0000   -3875.0000  3.78646E+02   60.476  0.00000E+00  1.00000E+00  0.98078  8.0979  6.5584E-01  0.0000E+00  4.8540E-01  5.6570E-01  2.4060E-03  1.0660E-02  2.9260E-02  5.5070E-02  1.0580E-02  1.0000E-07
     375.0000      40.0000   -3875.0000  3.78689E+02   53.974  0.00000E+00  1.00000E+00  0.98078  8.0979  6.5584E-01  0.0000E+00  4.8540E-01  5.6570E-01  2.4060E-03  1.0660E-02  2.9260E-02  5.5070E-02  1.0580E-02  1.0000E-07
     525.0000      40.0000   -3875.0000  3.78714E+02   50.161  0.00000E+00  1.00000E+00  0.98078  8.0979  6.5584E-01  0.0000E+00  4.8540E-01  5.6570E-01  2.4060E-03  1.0660E-02  2.9260E-02  5.5070E-02  1.0580E-02  1.0000E-07
     675.0000      40.0000   -3875.0000  3.78713E+02   48.351  0.00000E+00  1.00000E+00  0.98078  8.0979  6.5584E-01  0.0000E+00  4.8540E-01  5.6570E-01  2.4060E-03  1.0660E-02  2.9260E-02  5.5070E-02  1.0580E-02  1.0000E-07
     825.0000      40.0000   -3875.0000  3.78683E+02   53.048  0.00000E+00  1.00000E+00  0.98078  8.0979  6.5584E-01  0.0000E+00  4.8540E-01  5.6570E-01  2.4060E-03  1.0660E-02  2.9260E-02  5.5070E-02  1.0580E-02  1.0000E-07
     975.0000      40.0000   -3875.0000  3.78634E+02   62.701  0.00000E+00  1.00000E+00  0.98078  8.0979  6.5584E-01  0.0000E+00  4.8540E-01  5.6570E-01  2.4060E-03  1.0660E-02  2.9260E-02  5.5070E-02  1.0580E-02  1.0000E-07
    1125.0000      40.0000   -3875.0000  3.78604E+02   71.767  0.00000E+00  1.00000E+00  0.98078  8.0979  6.5584E-01  0.0000E+00  4.8540E-01  5.6570E-01  2.4060E-03  1.0660E-02  2.9260E-02  5.5070E-02  1.0580E-02  1.0000E-07
    1275.0000      40.0000   -3875.0000  3.78637E+02   68.722  0.00000E+00  1.00000E+00  0.98078  8.0979  6.5584E-01  0.0000E+00  4.8540E-01  5.6570E-01  2.4060E-03  1.0660E-02  2.9260E-02  5.5070E-02  1.0580E-02  1.0000E-07
    1425.0000      40.0000   -3875.0000  3.78702E+02   62.616  0.00000E+00  1.00000E+00  0.98078  8.0979  6.5584E-01  0.0000E+00  4.8540E-01  5.6570E-01  2.4060E-03  1.0660E-02  2.9260E-02  5.5070E-02  1.0580E-02  1.0000E-07
    1575.0000      40.0000   -3875.0000  3.78759E+02   59.416  0.00000E+00  1.00000E+00  0.98078  8.0979  6.5584E-01  0.0000E+00  4.8540E-01  5.6570E-01  2.4060E-03  1.0660E-02  2.9260E-02  5.5070E-02  1.0580E-02  1.0000E-07
    1725.0000      40.0000   -3875.0000  3.78805E+02   56.809  0.00000E+00  1.00000E+00  0.98078  8.0979  6.5584E-01  0.0000E+00  4.8540E-01  5.6570E-01  2.4060E-03  1.0660E-02  2.9260E-02  5.5070E-02  1.0580E-02  1.0000E-07
    1875.0000      40.0000   -3875.0000  3.78838E+02   54.026  0.00000E+00  1.00000E+00  0.98078  8.0979  6.5584E-01  0.0000E+00  4.8540E-01  5.6570E-01  2.4060E-03  1.0660E-02  2.9260E-02  5.5070E-02  1.0580E-02  1.0000E-07
    2025.0000      40.0000   -3875.0000  3.78855E+02   51.194  0.00000E+00  1.00000E+00  0.98078  8.0979  6.5584E-01  0.0000E+00  4.8540E-01  5.6570E-01  2.4060E-03  1.0660E-02  2.9260E-02  5.5070E-02  1.0580E-02  1.0000E-07
    2175.0000      40.0000   -3875.0000  3.78851E+02   51.946  0.00000E+00  1.00000E+00  0.98078  8.0979  6.5584E-01  0.0000E+00  4.8540E-01  5.6570E-01  2.4060E-03  1.0660E-02  2.9260E-02  5.5070E-02  1.0580E-02  1.0000E-07
    2325.0000      40.0000   -3875.0000  3.78827E+02   54.629  0.00000E+00  1.00000E+00  0.98078  8.0979  6.5584E-01  0.0000E+00  4.8540E-01  5.6570E-01  2.4060E-03  1.0660E-02  2.9260E-02  5.5070E-02  1.0580E-02  1.0000E-07
    2475.0000      40.0000   -3875.0000  3.78788E+02   57.941  0.00000E+00  1.00000E+00  0.98078  8.0979  6.5584E-01  0.0000E+00  4.8540E-01  5.6570E-01  2.4060E-03  1.0660E-02  2.9260E-02  5.5070E-02  1.0580E-02  1.0000E-07
    2625.0000      40.0000   -3875.0000  3.78737E+02   63.342  0.00000E+00  1.00000E+00  0.98078  8.0979  6.5584E-01  0.0000E+00  4.8540E-01  5.6570E-01  2.4060E-03  1.0660E-02  2.9260E-02  5.5070E-02  1.0580E-02  1.0000E-07
    2775.0000      40.0000   -3875.0000  3.78683E+02   70.427  0.00000E+00  1.00000E+00  0.98078  8.0979  6.5584E-01  0.0000E+00  4.8540E-01  5.6570E-01  2.4060E-03  1.0660E-02  2.9260E-02  5.5070E-02  1.0580E-02  1.0000E-07
      75.0000      40.0000   -3625.0000  3.54072E+02   61.556  0.00000E+00  1.00000E+00  0.98078  8.0979  6.5584E-01  0.0000E+00  4.8540E-01  5.6570E-01  2.4060E-03  1.0660E-02  2.9260E-02  5.5070E-02  1.0580E-02  1.0000E-07
     225.0000      40.0000   -3625.0000  3.54094E+02   38.356  0.00000E+00  1.00000E+00  0.98078  8.0979  6.5584E-01  0.0000E+00  4.8540E-01  5.6570E-01  2.4060E-03  1.0660E-02  2.9260E-02  5.5070E-02  1.0580E-02  1.0000E-07
     375.0000      40.0000   -3625.0000  3.54113E+02   32.488  0.00000E+00  1.00000E+00  0.98078  8.0979  6.5584E-01  0.0000E+00  4.8540E-01  5.6570E-01  2.4060E-03  1.0660E-02  2.9260E-02  5.5070E-02  1.0580E-02  1.0000E-07
     525.0000      40.0000   -3625.0000  3.54123E+02   28.658  0.00000E+00  1.00000E+00  0.98078  8.0979  6.5584E-01  0.0000E+00  4.8540E-01  5.6570E-01  2.4060E-03  1.0660E-02  2.9260E-02  5.5070E-02  1.0580E-02  1.0000E-07
     675.0000      40.0000   -3625.0000  3.54122E+02   28.359  0.00000E+00  1.00000E+00  0.98078  8.0979  6.5584E-01  0.0000E+00  4.8540E-01  5.6570E-01  2.4060E-03  1.0660E-02  2.9260E-02  5.5070E-02  1.0580E-02  1.0000E-07
     825.0000      40.0000   -3625.0000  3.54111E+02   34.457  0.00000E+00  1.00000E+00  0.98078  8.0979  6.5584E-01  0.0000E+00  4.8540E-01  5.6570E-01  2.4060E-03  1.0660E-02  2.9260E-02  5.5070E-02  1.0580E-02  1.0000E-07
     975.0000      40.0000   -3625.0000  3.54095E+02   51.724  0.00000E+00  1.00000E+00  0.98078  8.0979  6.5584E-01  0.0000E+00  4.8540E-01  5.6570E-01  2.4060E-03  1.0660E-02  2.9260E-02  5.5070E-02  1.0580E-02  1.0000E-07
    1125.0000      40.0000   -3625.0000  3.54090E+02   66.716  0.00000E+00  1.00000E+00  0.98078  8.0979  6.5584E-01  0.0000E+00  4.8540E-01  5.6570E-01  2.4060E-03  1.0660E-02  2.9260E-02  5.5070E-02  1.0580E-02  1.0000E-07
    1275.0000      40.0000   -3625.0000  3.54114E+02   54.175  0.00000E+00  1.00000E+00  0.98078  8.0979  6.5584E-01  0.0000E+00  4.8540E-01  5.6570E-01  2.4060E-03  1.0660E-02  2.9260E-02  5.5070E-02  1.0580E-02  1.0000E-07
    1425.0000      40.0000   -3625.0000  3.54152E+02   34.646  0.00000E+00  1.00000E+00  0.98078  8.0979  6.5584E-01  0.0000E+00  4.8540E-01  5.6570E-01  2.4060E-03  1.0660E-02  2.9260E-02  5.5070E-02  1.0580E-02  1.0000E-07
    1575.0000      40.0000   -3625.0000  3.54186E+02   31.207  0.00000E+00  1.00000E+00  0.98078  8.0979  6.5584E-01  0.0000E+00  4.8540E-01  5.6570E-01  2.4060E-03  1.0660E-02  2.9260E-02  5.5070E-02  1.0580E-02  1.0000E-07
    1725.0000      40.0000   -3625.0000  3.54214E+02   28.827  0.00000E+00  1.00000E+00  0.98078  8.0979  6.5584E-01  0.0000E+00  4.8540E-01  5.6570E-01  2.4060E-03  1.0660E-02  2.9260E-02  5.5070E-02  1.0580E-02  1.0000E-07
    1875.0000      40.0000   -3625.0000  3.54234E+02   26.561  0.00000E+00  1.00000E+00  0.98078  8.0979  6.5584E-01  0.0000E+00  4.8540E-01  5.6570E-01  2.4060E-03  1.0660E-02  2.9260E-02  5.5070E-02  1.0580E-02  1.0000E-07
    2025.0000      40.0000   -3625.0000  3.54243E+02   24.703  0.00000E+00  1.00000E+00  0.98078  8.0979  6.5584E-01  0.0000E+00  4.8540E-01  5.6570E-01  2.4060E-03  1.0660E-02  2.9260E-02  5.5070E-02  1.0580E-02  1.0000E-07
    2175.0000      40.0000   -3625.0000  3.54242E+02   25.070  0.00000E+00  1.00000E+00  0.98078  8.0979  6.5584E-01  0.0000E+00  4.8540E-01  5.6570E-01  2.4060E-03  1.0660E-02  2.9260E-02  5.5070E-02  1.0580E-02  1.0000E-07
    2325.0000      40.0000   -3625.0000  3.54229E+02   27.841  0.00000E+00  1.00000E+00  0.98078  8.0979  6.5584E-01  0.0000E+00  4.8540E-01  5.6570E-01  2.4060E-03  1.0660E-02  2.9260E-02  5.5070E-02  1.0580E-02  1.0000E-07
    2475.0000      40.0000   -3625.0000  3.54208E+02   31.126  0.00000E+00  1.00000E+00  0.98078  8.0979  6.5584E-01  0.0000E+00  4.8540E-01  5.6570E-01  2.4060E-03  1.0660E-02  2.9260E-02  5.5070E-02  1.0580E-02  1.0000E-07
    2625.0000      40.0000   -3625.0000  3.54183E+02   35.636  0.00000E+00  1.00000E+00  0.98078  8.0979  6.5584E-01  0.0000E+00  4.8540E-01  5.6570E-01  2.4060E-03  1.0660E-02  2.9260E-02  5.5070E-02  1.0580E-02  1.0000E-07
    2775.0000      40.0000   -3625.0000  3.54154E+02   61.727  0.00000E+00  1.00000E+00  0.98078  8.0979  6.5584E-01  0.0000E+00  4.8540E-01  5.6570E-01  2.4060E-03  1.0660E-02  2.9260E-02  5.5070E-02  1.0580E-02  1.0000E-07
      75.0000      40.0000   -3375.0000  3.29466E+02   61.091  0.00000E+00  1.00000E+00  0.98078  8.0979  6.5584E-01  0.0000E+00  4.8540E-01  5.6570E-01  2.4060E-03  1.0660E-02  2.9260E-02  5.5070E-02  1.0580E-02  1.0000E-07
     225.0000      40.0000   -3375.0000  3.29468E+02   40.557  0.00000E+00  1.00000E+00  0.98078  8.0979  6.5584E-01  0.0000E+00  4.8540E-01  5.6570E-01  2.4060E-03  1.0660E-02  2.9260E-02  5.5070E-02  1.0580E-02  1.0000E-07
     375.0000      40.0000   -3375.0000  3.29478E+02   33.208  0.00000E+00  1.00000E+00  0.98078  8.0979  6.5584E-01  0.0000E+00  4.8540E-01  5.6570E-01  2.4060E-03  1.0660E-02  2.9260E-02  5.5070E-02  1.0580E-02  1.0000E-07
     525.0000      40.0000   -3375.0000  3.29486E+02   28.390  0.00000E+00  1.00000E+00  0.98078  8.0979  6.5584E-01  0.0000E+00  4.8540E-01  5.6570E-01  2.4060E-03  1.0660E-02  2.9260E-02  5.5070E-02  1.0580E-02  1.0000E-07
     675.0000      40.0000   -3375.0000  3.29489E+02   27.960  0.00000E+00  1.00000E+00  0.98078  8.0979  6.5584E-01  0.0000E+00  4.8540E-01  5.6570E-01  2.4060E-03  1.0660E-02  2.9260E-02  5.5070E-02  1.0580E-02  1.0000E-07
     825.0000      40.0000   -3375.0000  3.29487E+02   35.211  0.00000E+00  1.00000E+00  0.98078  8.0979  6.5584E-01  0.0000E+00  4.8540E-01  5.6570E-01  2.4060E-03  1.0660E-02  2.9260E-02  5.5070E-02  1.0580E-02  1.0000E-07
     975.0000      40.0000   -3375.0000  3.29485E+02   51.152  0.00000E+00  1.00000E+00  0.98078  8.0979  6.5584E-01  0.0000E+00  4.8540E-01  5.6570E-01  2.4060E-03  1.0660E-02  2.9260E-02  5.5070E-02  1.0580E-02  1.0000E-07
    1125.0000      40.0000   -3375.0000  3.29484E+02   66.188  0.00000E+00  1.00000E+00  0.98078  8.0979  6.5584E-01  0.0000E+00  4.8540E-01  5.6570E-01  2.4060E-03  1.0660E-02  2.9260E-02  5.5070E-02  1.0580E-02  1.0000E-07
    1275.0000      40.0000   -3375.0000  3.29487E+02   51.969  0.00000E+00  1.00000E+00  0.98078  8.0979  6.5584E-01  0.0000E+00  4.8540E-01  5.6570E-01  2.4060E-03  1.0660E-02  2.9260E-02  5.5070E-02  1.0580E-02  1.0000E-07
    1425.0000      40.0000   -3375.0000  3.29496E+02   36.901  0.00000E+00  1.00000E+00  0.98078  8.0979  6.5584E-01  0.0000E+00  4.8540E-01  5.6570E-01  2.4060E-03  1.0660E-02  2.9260E-02  5.5070E-02  1.0580E-02  1.0000E-07
    1575.0000      40.0000   -3375.0000  3.29515E+02   32.847  0.00000E+00  1.00000E+00  0.98078  8.0979  6.5584E-01  0.0000E+00  4.8540E-01  5.6570E-01  2.4060E-03  1.0660E-02  2.9260E-02  5.5070E-02  1.0580E-02  1.0000E-07
    1725.0000      40.0000   -3375.0000  3.29535E+02   29.634  0.00000E+00  1.00000E+00  0.98078  8.0979  6.5584E-01  0.0000E+00  4.8540E-01  5.6570E-01  2.4060E-03  1.0660E-02  2.9260E-02  5.5070E-02  1.0580E-02  1.0000E-07
    1875.0000      40.0000   -3375.0000  3.29551E+02   26.552  0.00000E+00  1.00000E+00  0.98078  8.0979  6.5584E-01  0.0000E+00  4.8540E-01  5.6570E-01  2.4060E-03  1.0660E-02  2.9260E-02  5.5070E-02  1.0580E-02  1.0000E-07
    2025.0000      40.0000   -3375.0000  3.29560E+02   24.209  0.00000E+00  1.00000E+00  0.98078  8.0979  6.5584E-01  0.0000E+00  4.8540E-01  5.6570E-01  2.4060E-03  1.0660E-02  2.9260E-02  5.5070E-02  1.0580E-02  1.0000E-07
    2175.0000      40.0000   -3375.0000  3.29560E+02   24.556  0.00000E+00  1.00000E+00  0.98078  8.0979  6.5584E-01  0.0000E+00  4.8540E-01  5.6570E-01  2.4060E-03  1.0660E-02  2.9260E-02  5.5070E-02  1.0580E-02  1.0000E-07
    2325.0000      40.0000   -3375.0000  3.29551E+02   28.299  0.00000E+00  1.00000E+00  0.98078  8.0979  6.5584E-01  0.0000E+00  4.8540E-01  5.6570E-01  2.4060E-03  1.0660E-02  2.9260E-02  5.5070E-02  1.0580E-02  1.0000E-07
    2475.0000      40.0000   -3375.0000  3.29536E+02   32.846  0.00000E+00  1.00000E+00  0.98078  8.0979  6.5584E-01  0.0000E+00  4.8540E-01  5.6570E-01  2.4060E-03  1.0660E-02  2.9260E-02  5.5070E-02  1.0580E-02  1.0000E-07