Title="TOUGHREACT V3.85omp : flowdata.tec: P,T,SAT & Other Variables"
Variables= "X(m)"     "Y(m)"      "Z(m)"       "P(Pa)"        "T(C)"      "SatGas"      "SatLiq"          "X1"          "X2"    "Pcap(Pa)"  "DGas_kg/m3"  "DLiq_kg/m3"    "Porosity"  "Perm_X(m2)"  "Perm_Y(m2)"  "Perm_Z(m2)"    "Krel_Gas"    "Krel_Liq"  "HGas(J/kg)"  "HLiq(J/kg)"  "Cp(J/kg/C)"   "TC(W/m/C)"  "DBlk_kg/m3"  "Tdif(m2/s)"
Zone T= "0.00000000E+00 sec" I=     231 J=       1 K=       1 F=Point SolutionTime= 0.00000000E+00
    1350.0000     250.0000   -4875.0000   4.780417E+07  2.443750E+02  0.000000E+00  1.000000E+00  1.000000E+00  0.000000E+00  0.000000E+00  1.811289E+01  8.477242E+02  1.000000E-02  1.010000E-15  1.010000E-15  1.010000E-15  0.000000E+00  1.000000E+00  0.000000E+00  1.067851E+06  1.000000E+03  3.720000E+00  2.285477E+03  1.627669E-06
    1350.0000     250.0000   -4625.0000   4.366021E+07  2.446722E+02  0.000000E+00  1.000000E+00  1.000000E+00  0.000000E+00  0.000000E+00  1.820786E+01  8.441631E+02  9.949438E-03  1.010000E-15  1.010000E-15  1.010000E-15  0.000000E+00  1.000000E+00  0.000000E+00  1.067846E+06  1.000000E+03  3.720000E+00  2.285515E+03  1.627642E-06
    1350.0000     250.0000   -4375.0000   3.954108E+07  2.449479E+02  0.000000E+00  1.000000E+00  1.000000E+00  0.000000E+00  0.000000E+00  1.829636E+01  8.405426E+02  9.899912E-03  1.010000E-15  1.010000E-15  1.010000E-15  0.000000E+00  1.000000E+00  0.000000E+00  1.067839E+06  1.000000E+03  3.720000E+00  2.285551E+03  1.627616E-06
    1350.0000     250.0000   -4125.0000   3.545266E+07  2.451984E+02  0.000000E+00  1.000000E+00  1.000000E+00  0.000000E+00  0.000000E+00  1.837706E+01  8.368672E+02  9.851592E-03  1.010000E-15  1.010000E-15  1.010000E-15  0.000000E+00  1.000000E+00  0.000000E+00  1.067820E+06  1.000000E+03  3.720000E+00  2.285586E+03  1.627591E-06
    1350.0000     250.0000   -3875.0000   3.235334E+07  2.453733E+02  0.000000E+00  1.000000E+00  1.000000E+00  0.000000E+00  0.000000E+00  1.843361E+01  8.340214E+02  1.966940E-01  2.000095E-14  2.000095E-14  2.000095E-14  0.000000E+00  1.000000E+00  0.000000E+00  1.067803E+06  1.000000E+03  3.720000E+00  2.011651E+03  1.849227E-06
    1350.0000     250.0000   -3625.0000   3.023402E+07  2.454839E+02  0.000000E+00  1.000000E+00  1.000000E+00  0.000000E+00  0.000000E+00  1.846944E+01  8.320459E+02  1.969704E-01  2.000095E-14  2.000095E-14  2.000095E-14  0.000000E+00  1.000000E+00  0.000000E+00  1.067785E+06  1.000000E+03  3.720000E+00  2.010856E+03  1.849958E-06
    1350.0000     250.0000   -3375.0000   2.814041E+07  2.455385E+02  0.000000E+00  1.000000E+00  1.000000E+00  0.000000E+00  0.000000E+00  1.848715E+01  8.301310E+02  1.972631E-01  2.000095E-14  2.000095E-14  2.000095E-14  0.000000E+00  1.000000E+00  0.000000E+00  1.067545E+06  1.000000E+03  3.720000E+00  2.010049E+03  1.850701E-06
    1350.0000     250.0000   -3125.0000   2.606944E+07  2.450623E+02  0.000000E+00  1.000000E+00  1.000000E+00  0.000000E+00  0.000000E+00  1.833317E+01  8.288986E+02  1.975674E-01  2.000093E-14  2.000093E-14  2.000093E-14  0.000000E+00  1.000000E+00  0.000000E+00  1.064899E+06  1.000000E+03  3.720000E+00  2.009358E+03  1.851337E-06
    1350.0000     250.0000   -2875.0000   2.401223E+07  2.406480E+02  0.000000E+00  1.000000E+00  1.000000E+00  0.000000E+00  0.000000E+00  1.695750E+01  8.328133E+02  1.978571E-01  2.000080E-14  2.000080E-14  2.000080E-14  0.000000E+00  1.000000E+00  0.000000E+00  1.044172E+06  1.000000E+03  3.720000E+00  2.009707E+03  1.851016E-06
    1350.0000     250.0000   -2625.0000   2.193531E+07  2.189921E+02  0.000000E+00  1.000000E+00  1.000000E+00  0.000000E+00  0.000000E+00  1.140345E+01  8.579389E+02  1.980312E-01  2.000029E-14  2.000029E-14  2.000029E-14  0.000000E+00  1.000000E+00  0.000000E+00  9.455062E+05  1.000000E+03  3.720000E+00  2.014427E+03  1.846679E-06
    1350.0000     250.0000   -2375.0000   1.982133E+07  2.020000E+02  0.000000E+00  1.000000E+00  1.000000E+00  0.000000E+00  0.000000E+00  8.187831E+00  8.758693E+02  1.982103E-01  1.999998E-14  1.999998E-14  1.999998E-14  0.000000E+00  1.000000E+00  0.000000E+00  8.691569E+05  1.000000E+03  3.720000E+00  2.017723E+03  1.843663E-06
    1350.0000     250.0000   -2125.0000   1.769637E+07  1.982717E+02  0.000000E+00  1.000000E+00  1.000000E+00  0.000000E+00  0.000000E+00  7.592813E+00  8.785079E+02  1.984622E-01  1.999992E-14  1.999992E-14  1.999992E-14  0.000000E+00  1.000000E+00  0.000000E+00  8.517454E+05  1.000000E+03  3.720000E+00  2.017888E+03  1.843512E-06
    1350.0000     250.0000   -1875.0000   1.558022E+07  1.975121E+02  0.000000E+00  1.000000E+00  1.000000E+00  0.000000E+00  0.000000E+00  7.476012E+00  8.778726E+02  1.987379E-01  1.999991E-14  1.999991E-14  1.999991E-14  0.000000E+00  1.000000E+00  0.000000E+00  8.474125E+05  1.000000E+03  3.720000E+00  2.017369E+03  1.843986E-06
    1350.0000     250.0000   -1625.0000   1.347373E+07  1.970591E+02  0.000000E+00  1.000000E+00  1.000000E+00  0.000000E+00  0.000000E+00  7.407053E+00  8.768950E+02  1.990219E-01  1.999990E-14  1.999990E-14  1.999990E-14  0.000000E+00  1.000000E+00  0.000000E+00  8.444386E+05  1.000000E+03  3.720000E+00  2.016771E+03  1.844533E-06
    1350.0000     250.0000   -1375.0000   1.137055E+07  1.962739E+02  0.000000E+00  1.000000E+00  1.000000E+00  0.000000E+00  0.000000E+00  7.288737E+00  8.762791E+02  1.993065E-01  1.999989E-14  1.999989E-14  1.999989E-14  0.000000E+00  1.000000E+00  0.000000E+00  8.399995E+05  1.000000E+03  3.720000E+00  2.016243E+03  1.845016E-06
    1350.0000     250.0000   -1125.0000   9.249359E+06  1.876869E+02  0.000000E+00  1.000000E+00  1.000000E+00  0.000000E+00  0.000000E+00  6.091821E+00  8.842470E+02  1.995330E-01  1.999977E-14  1.999977E-14  1.999977E-14  0.000000E+00  1.000000E+00  0.000000E+00  8.010896E+05  1.000000E+03  3.720000E+00  2.017511E+03  1.843856E-06
    1350.0000     250.0000    -875.0000   7.145050E+06  1.322927E+02  0.000000E+00  1.000000E+00  1.000000E+00  0.000000E+00  0.000000E+00  1.595475E+00  9.362711E+02  1.994913E-01  1.000000E-15  1.000000E-15  1.000000E-15  0.000000E+00  1.000000E+00  0.000000E+00  5.607147E+05  1.000000E+03  3.720000E+00  1.883856E+03  1.974673E-06
    1350.0000     250.0000    -625.0000   5.077175E+06  9.486254E+01  0.000000E+00  1.000000E+00  1.000000E+00  0.000000E+00  0.000000E+00  5.020992E-01  9.641264E+02  1.995797E-01  1.000000E-15  1.000000E-15  1.000000E-15  0.000000E+00  1.000000E+00  0.000000E+00  4.012139E+05  1.000000E+03  3.720000E+00  1.889311E+03  1.968972E-06
    1350.0000     250.0000    -375.0000   2.996601E+06  6.392216E+01  0.000000E+00  1.000000E+00  1.000000E+00  0.000000E+00  0.000000E+00  1.540746E-01  9.823790E+02  1.996988E-01  1.000000E-15  1.000000E-15  1.000000E-15  0.000000E+00  1.000000E+00  0.000000E+00  2.699759E+05  1.000000E+03  3.720000E+00  1.892818E+03  1.965323E-06
    1350.0000     250.0000    -127.5000   9.954775E+05  3.769126E+01  0.000000E+00  1.000000E+00  1.000000E+00  0.000000E+00  0.000000E+00  4.551474E-02  9.935544E+02  1.998807E-01  1.000000E-15  1.000000E-15  1.000000E-15  0.000000E+00  1.000000E+00  0.000000E+00  1.586847E+05  1.000000E+03  3.720000E+00  1.894845E+03  1.963221E-06
    1350.0000     250.0000      -2.5000   2.126663E+04  2.511250E+01  0.000000E+00  1.000000E+00  1.000000E+00  0.000000E+00  0.000000E+00  2.318690E-02  9.970953E+02  1.000000E+00  1.000000E-10  1.000000E-10  1.000000E-10  0.000000E+00  1.000000E+00  0.000000E+00  1.052537E+05  4.000000E+03  6.100000E-01  9.970953E+02  1.529443E-07
    1350.0000     650.0000   -4875.0000   4.780417E+07  2.443750E+02  0.000000E+00  1.000000E+00  1.000000E+00  0.000000E+00  0.000000E+00  1.811289E+01  8.477242E+02  1.000000E-02  1.010000E-15  1.010000E-15  1.010000E-15  0.000000E+00  1.000000E+00  0.000000E+00  1.067851E+06  1.000000E+03  3.720000E+00  2.285477E+03  1.627669E-06
    1350.0000     650.0000   -4625.0000   4.364363E+07  2.446733E+02  0.000000E+00  1.000000E+00  1.000000E+00  0.000000E+00  0.000000E+00  1.820823E+01  8.441487E+02  9.948911E-03  1.010000E-15  1.010000E-15  1.010000E-15  0.000000E+00  1.000000E+00  0.000000E+00  1.067845E+06  1.000000E+03  3.720000E+00  2.285516E+03  1.627641E-06
    1350.0000     650.0000   -4375.0000   3.950490E+07  2.449503E+02  0.000000E+00  1.000000E+00  1.000000E+00  0.000000E+00  0.000000E+00  1.829711E+01  8.405104E+02  9.898766E-03  1.010000E-15  1.010000E-15  1.010000E-15  0.000000E+00  1.000000E+00  0.000000E+00  1.067839E+06  1.000000E+03  3.720000E+00  2.285553E+03  1.627615E-06
    1350.0000     650.0000   -4125.0000   3.539270E+07  2.452019E+02  0.000000E+00  1.000000E+00  1.000000E+00  0.000000E+00  0.000000E+00  1.837820E+01  8.368126E+02  9.849701E-03  1.010000E-15  1.010000E-15  1.010000E-15  0.000000E+00  1.000000E+00  0.000000E+00  1.067820E+06  1.000000E+03  3.720000E+00  2.285588E+03  1.627590E-06
    1350.0000     650.0000   -3875.0000   3.228118E+07  2.453771E+02  0.000000E+00  1.000000E+00  1.000000E+00  0.000000E+00  0.000000E+00  1.843485E+01  8.339547E+02  1.966486E-01  2.000095E-14  2.000095E-14  2.000095E-14  0.000000E+00  1.000000E+00  0.000000E+00  1.067803E+06  1.000000E+03  3.720000E+00  2.011704E+03  1.849178E-06
    1350.0000     650.0000   -3625.0000   3.016709E+07  2.454866E+02  0.000000E+00  1.000000E+00  1.000000E+00  0.000000E+00  0.000000E+00  1.847033E+01  8.319839E+02  1.969282E-01  2.000095E-14  2.000095E-14  2.000095E-14  0.000000E+00  1.000000E+00  0.000000E+00  1.067782E+06  1.000000E+03  3.720000E+00  2.010906E+03  1.849912E-06
    1350.0000     650.0000   -3375.0000   2.808025E+07  2.455321E+02  0.000000E+00  1.000000E+00  1.000000E+00  0.000000E+00  0.000000E+00  1.848509E+01  8.300857E+02  1.972251E-01  2.000095E-14  2.000095E-14  2.000095E-14  0.000000E+00  1.000000E+00  0.000000E+00  1.067503E+06  1.000000E+03  3.720000E+00  2.010096E+03  1.850658E-06
    1350.0000     650.0000   -3125.0000   2.601469E+07  2.449837E+02  0.000000E+00  1.000000E+00  1.000000E+00  0.000000E+00  0.000000E+00  1.830788E+01  8.289521E+02  1.975322E-01  2.000093E-14  2.000093E-14  2.000093E-14  0.000000E+00  1.000000E+00  0.000000E+00  1.064526E+06  1.000000E+03  3.720000E+00  2.009421E+03  1.851280E-06
    1350.0000     650.0000   -2875.0000   2.396050E+07  2.402494E+02  0.000000E+00  1.000000E+00  1.000000E+00  0.000000E+00  0.000000E+00  1.683777E+01  8.332839E+02  1.978219E-01  2.000079E-14  2.000079E-14  2.000079E-14  0.000000E+00  1.000000E+00  0.000000E+00  1.042333E+06  1.000000E+03  3.720000E+00  2.009851E+03  1.850883E-06
    1350.0000     650.0000   -2625.0000   2.188518E+07  2.188626E+02  0.000000E+00  1.000000E+00  1.000000E+00  0.000000E+00  0.000000E+00  1.137552E+01  8.580537E+02  1.979986E-01  2.000028E-14  2.000028E-14  2.000028E-14  0.000000E+00  1.000000E+00  0.000000E+00  9.449081E+05  1.000000E+03  3.720000E+00  2.014497E+03  1.846615E-06
    1350.0000     650.0000   -2375.0000   1.977598E+07  2.056474E+02  0.000000E+00  1.000000E+00  1.000000E+00  0.000000E+00  0.000000E+00  8.806125E+00  8.717592E+02  1.982032E-01  2.000004E-14  2.000004E-14  2.000004E-14  0.000000E+00  1.000000E+00  0.000000E+00  8.852497E+05  1.000000E+03  3.720000E+00  2.016918E+03  1.844398E-06
    1350.0000     650.0000   -2125.0000   1.765980E+07  2.055599E+02  0.000000E+00  1.000000E+00  1.000000E+00  0.000000E+00  0.000000E+00  8.790860E+00  8.703336E+02  1.984825E-01  2.000003E-14  2.000003E-14  2.000003E-14  0.000000E+00  1.000000E+00  0.000000E+00  8.839437E+05  1.000000E+03  3.720000E+00  2.016236E+03  1.845022E-06
    1350.0000     650.0000   -1875.0000   1.555537E+07  2.105297E+02  0.000000E+00  1.000000E+00  1.000000E+00  0.000000E+00  0.000000E+00  9.692976E+00  8.630367E+02  1.987999E-01  2.000012E-14  2.000012E-14  2.000012E-14  0.000000E+00  1.000000E+00  0.000000E+00  9.051995E+05  1.000000E+03  3.720000E+00  2.014332E+03  1.846766E-06
    1350.0000     650.0000   -1625.0000   1.346978E+07  2.196096E+02  0.000000E+00  1.000000E+00  1.000000E+00  0.000000E+00  0.000000E+00  1.153744E+01  8.504635E+02  1.991546E-01  2.000030E-14  2.000030E-14  2.000030E-14  0.000000E+00  1.000000E+00  0.000000E+00  9.452873E+05  1.000000E+03  3.720000E+00  2.011318E+03  1.849533E-06
    1350.0000     650.0000   -1375.0000   1.140060E+07  2.240010E+02  0.000000E+00  1.000000E+00  1.000000E+00  0.000000E+00  0.000000E+00  1.252835E+01  8.432064E+02  1.994922E-01  2.000039E-14  2.000039E-14  2.000039E-14  0.000000E+00  1.000000E+00  0.000000E+00  9.646181E+05  1.000000E+03  3.720000E+00  2.009381E+03  1.851316E-06
    1350.0000     650.0000   -1125.0000   9.326005E+06  2.143914E+02  0.000000E+00  1.000000E+00  1.000000E+00  0.000000E+00  0.000000E+00  1.044518E+01  8.534997E+02  1.997421E-01  2.000019E-14  2.000019E-14  2.000019E-14  0.000000E+00  1.000000E+00  0.000000E+00  9.202392E+05  1.000000E+03  3.720000E+00  2.011073E+03  1.849759E-06
    1350.0000     650.0000    -875.0000   7.255507E+06  1.655508E+02  0.000000E+00  1.000000E+00  1.000000E+00  0.000000E+00  0.000000E+00  3.718811E+00  9.058595E+02  1.997610E-01  1.000000E-15  1.000000E-15  1.000000E-15  0.000000E+00  1.000000E+00  0.000000E+00  7.033920E+05  1.000000E+03  3.720000E+00  1.877462E+03  1.981398E-06
    1350.0000     650.0000    -625.0000   5.190075E+06  1.301935E+02  0.000000E+00  1.000000E+00  1.000000E+00  0.000000E+00  0.000000E+00  1.504843E+00  9.370145E+02  1.998635E-01  1.000000E-15  1.000000E-15  1.000000E-15  0.000000E+00  1.000000E+00  0.000000E+00  5.504669E+05  1.000000E+03  3.720000E+00  1.883564E+03  1.974979E-06
    1350.0000     650.0000    -375.0000   3.092316E+06  9.438387E+01  0.000000E+00  1.000000E+00  1.000000E+00  0.000000E+00  0.000000E+00  4.938681E-01  9.635269E+02  1.999426E-01  1.000000E-15  1.000000E-15  1.000000E-15  0.000000E+00  1.000000E+00  0.000000E+00  3.976887E+05  1.000000E+03  3.720000E+00  1.888772E+03  1.969534E-06
    1350.0000     650.0000    -127.5000   1.028235E+06  5.109539E+01  0.000000E+00  1.000000E+00  1.000000E+00  0.000000E+00  0.000000E+00  8.735281E-02  9.879719E+02  1.999821E-01  1.000000E-15  1.000000E-15  1.000000E-15  0.000000E+00  1.000000E+00  0.000000E+00  2.147076E+05  1.000000E+03  3.720000E+00  1.893615E+03  1.964497E-06
    1350.0000     650.0000      -2.5000   2.126663E+04  2.511250E+01  0.000000E+00  1.000000E+00  1.000000E+00  0.000000E+00  0.000000E+00  2.318690E-02  9.970953E+02  1.000000E+00  1.000000E-10  1.000000E-10  1.000000E-10  0.000000E+00  1.000000E+00  0.000000E+00  1.052537E+05  4.000000E+03  6.100000E-01  9.970953E+02  1.529443E-07
    1350.0000     900.0000   -4875.0000   4.780417E+07  2.443750E+02  0.000000E+00  1.000000E+00  1.000000E+00  0.000000E+00  0.000000E+00  1.811289E+01  8.477242E+02  1.000000E-02  1.010000E-15  1.010000E-15  1.010000E-15  0.000000E+00  1.000000E+00  0.000000E+00  1.067851E+06  1.000000E+03  3.720000E+00  2.285477E+03  1.627669E-06
    1350.0000     900.0000   -4625.0000   4.363091E+07  2.446742E+02  0.000000E+00  1.000000E+00  1.000000E+00  0.000000E+00  0.000000E+00  1.820851E+01  8.441377E+02  9.948506E-03  1.010000E-15  1.010000E-15  1.010000E-15  0.000000E+00  1.000000E+00  0.000000E+00  1.067845E+06  1.000000E+03  3.720000E+00  2.285516E+03  1.627641E-06
    1350.0000     900.0000   -4375.0000   3.947409E+07  2.449522E+02  0.000000E+00  1.000000E+00  1.000000E+00  0.000000E+00  0.000000E+00  1.829775E+01  8.404830E+02  9.897790E-03  1.010000E-15  1.010000E-15  1.010000E-15  0.000000E+00  1.000000E+00  0.000000E+00  1.067839E+06  1.000000E+03  3.720000E+00  2.285554E+03  1.627614E-06
    1350.0000     900.0000   -4125.0000   3.533276E+07  2.452054E+02  0.000000E+00  1.000000E+00  1.000000E+00  0.000000E+00  0.000000E+00  1.837934E+01  8.367580E+02  9.847810E-03  1.010000E-15  1.010000E-15  1.010000E-15  0.000000E+00  1.000000E+00  0.000000E+00  1.067820E+06  1.000000E+03  3.720000E+00  2.285590E+03  1.627588E-06
    1350.0000     900.0000   -3875.0000   3.220188E+07  2.453814E+02  0.000000E+00  1.000000E+00  1.000000E+00  0.000000E+00  0.000000E+00  1.843623E+01  8.338811E+02  1.965986E-01  2.000095E-14  2.000095E-14  2.000095E-14  0.000000E+00  1.000000E+00  0.000000E+00  1.067802E+06  1.000000E+03  3.720000E+00  2.011763E+03  1.849124E-06
    1350.0000     900.0000   -3625.0000   3.009861E+07  2.454892E+02  0.000000E+00  1.000000E+00  1.000000E+00  0.000000E+00  0.000000E+00  1.847117E+01  8.319207E+02  1.968849E-01  2.000095E-14  2.000095E-14  2.000095E-14  0.000000E+00  1.000000E+00  0.000000E+00  1.067777E+06  1.000000E+03  3.720000E+00  2.010957E+03  1.849865E-06
    1350.0000     900.0000   -3375.0000   2.802192E+07  2.455222E+02  0.000000E+00  1.000000E+00  1.000000E+00  0.000000E+00  0.000000E+00  1.848188E+01  8.300467E+02  1.971880E-01  2.000095E-14  2.000095E-14  2.000095E-14  0.000000E+00  1.000000E+00  0.000000E+00  1.067444E+06  1.000000E+03  3.720000E+00  2.010143E+03  1.850615E-06
    1350.0000     900.0000   -3125.0000   2.596244E+07  2.448668E+02  0.000000E+00  1.000000E+00  1.000000E+00  0.000000E+00  0.000000E+00  1.827029E+01  8.290582E+02  1.974983E-01  2.000093E-14  2.000093E-14  2.000093E-14  0.000000E+00  1.000000E+00  0.000000E+00  1.063977E+06  1.000000E+03  3.720000E+00  2.009491E+03  1.851215E-06
    1350.0000     900.0000   -2875.0000   2.391086E+07  2.391807E+02  0.000000E+00  1.000000E+00  1.000000E+00  0.000000E+00  0.000000E+00  1.652027E+01  8.346202E+02  1.977838E-01  2.000076E-14  2.000076E-14  2.000076E-14  0.000000E+00  1.000000E+00  0.000000E+00  1.037430E+06  1.000000E+03  3.720000E+00  2.010172E+03  1.850588E-06
    1350.0000     900.0000   -2625.0000   2.183867E+07  2.178031E+02  0.000000E+00  1.000000E+00  1.000000E+00  0.000000E+00  0.000000E+00  1.114911E+01  8.592701E+02  1.979623E-01  2.000026E-14  2.000026E-14  2.000026E-14  0.000000E+00  1.000000E+00  0.000000E+00  9.401522E+05  1.000000E+03  3.720000E+00  2.014790E+03  1.846346E-06
    1350.0000     900.0000   -2375.0000   1.973879E+07  2.086854E+02  0.000000E+00  1.000000E+00  1.000000E+00  0.000000E+00  0.000000E+00  9.349763E+00  8.682850E+02  1.981971E-01  2.000009E-14  2.000009E-14  2.000009E-14  0.000000E+00  1.000000E+00  0.000000E+00  8.986987E+05  1.000000E+03  3.720000E+00  2.016238E+03  1.845020E-06
    1350.0000     900.0000   -2125.0000   1.763660E+07  2.114197E+02  0.000000E+00  1.000000E+00  1.000000E+00  0.000000E+00  0.000000E+00  9.862262E+00  8.635701E+02  1.985017E-01  2.000014E-14  2.000014E-14  2.000014E-14  0.000000E+00  1.000000E+00  0.000000E+00  9.100043E+05  1.000000E+03  3.720000E+00  2.014866E+03  1.846276E-06
    1350.0000     900.0000   -1875.0000   1.554775E+07  2.199114E+02  0.000000E+00  1.000000E+00  1.000000E+00  0.000000E+00  0.000000E+00  1.160338E+01  8.517882E+02  1.988493E-01  2.000030E-14  2.000030E-14  2.000030E-14  0.000000E+00  1.000000E+00  0.000000E+00  9.473545E+05  1.000000E+03  3.720000E+00  2.012024E+03  1.848884E-06
    1350.0000     900.0000   -1625.0000   1.347791E+07  2.301717E+02  0.000000E+00  1.000000E+00  1.000000E+00  0.000000E+00  0.000000E+00  1.403986E+01  8.370717E+02  1.992197E-01  2.000052E-14  2.000052E-14  2.000052E-14  0.000000E+00  1.000000E+00  0.000000E+00  9.934707E+05  1.000000E+03  3.720000E+00  2.008556E+03  1.852077E-06
    1350.0000     900.0000   -1375.0000   1.142265E+07  2.328907E+02  0.000000E+00  1.000000E+00  1.000000E+00  0.000000E+00  0.000000E+00  1.475284E+01  8.316148E+02  1.995535E-01  2.000059E-14  2.000059E-14  2.000059E-14  0.000000E+00  1.000000E+00  0.000000E+00  1.005515E+06  1.000000E+03  3.720000E+00  2.006979E+03  1.853532E-06
    1350.0000     900.0000   -1125.0000   9.370682E+06  2.288519E+02  0.000000E+00  1.000000E+00  1.000000E+00  0.000000E+00  0.000000E+00  1.370440E+01  8.350987E+02  1.998489E-01  2.000049E-14  2.000049E-14  2.000049E-14  0.000000E+00  1.000000E+00  0.000000E+00  9.863571E+05  1.000000E+03  3.720000E+00  2.007241E+03  1.853290E-06
    1350.0000     900.0000    -875.0000   7.318320E+06  1.962098E+02  0.000000E+00  1.000000E+00  1.000000E+00  0.000000E+00  0.000000E+00  7.279150E+00  8.734287E+02  1.999849E-01  1.000000E-15  1.000000E-15  1.000000E-15  0.000000E+00  1.000000E+00  0.000000E+00  8.378827E+05  1.000000E+03  3.720000E+00  1.870705E+03  1.988556E-06
    1350.0000     900.0000    -625.0000   5.263494E+06  1.695824E+02  0.000000E+00  1.000000E+00  1.000000E+00  0.000000E+00  0.000000E+00  4.083449E+00  9.005900E+02  2.001468E-01  1.000000E-15  1.000000E-15  1.000000E-15  0.000000E+00  1.000000E+00  0.000000E+00  7.197675E+05  1.000000E+03  3.720000E+00  1.875939E+03  1.983007E-06
    1350.0000     900.0000    -375.0000   3.178262E+06  1.362931E+02  0.000000E+00  1.000000E+00  1.000000E+00  0.000000E+00  0.000000E+00  1.780320E+00  9.307059E+02  2.002492E-01  1.000000E-15  1.000000E-15  1.000000E-15  0.000000E+00  1.000000E+00  0.000000E+00  5.750977E+05  1.000000E+03  3.720000E+00  1.881845E+03  1.976784E-06
    1350.0000     900.0000    -127.5000   1.079187E+06  7.684436E+01  0.000000E+00  1.000000E+00  1.000000E+00  0.000000E+00  0.000000E+00  2.599164E-01  9.740641E+02  2.001692E-01  1.000000E-15  1.000000E-15  1.000000E-15  0.000000E+00  1.000000E+00  0.000000E+00  3.225036E+05  1.000000E+03  3.720000E+00  1.890619E+03  1.967610E-06
    1350.0000     900.0000      -2.5000   2.126663E+04  2.511250E+01  0.000000E+00  1.000000E+00  1.000000E+00  0.000000E+00  0.000000E+00  2.318690E-02  9.970953E+02  1.000000E+00  1.000000E-10  1.000000E-10  1.000000E-10  0.000000E+00  1.000000E+00  0.000000E+00  1.052537E+05  4.000000E+03  6.100000E-01  9.970953E+02  1.529443E-07
    1350.0000    1050.0000   -4875.0000   4.780417E+07  2.443750E+02  0.000000E+00  1.000000E+00  1.000000E+00  0.000000E+00  0.000000E+00  1.811289E+01  8.477242E+02  1.000000E-02  1.010000E-15  1.010000E-15  1.010000E-15  0.000000E+00  1.000000E+00  0.000000E+00  1.067851E+06  1.000000E+03  3.720000E+00  2.285477E+03  1.627669E-06
    1350.0000    1050.0000   -4625.0000   4.362500E+07  2.446746E+02  0.000000E+00  1.000000E+00  1.000000E+00  0.000000E+00  0.000000E+00  1.820864E+01  8.441325E+02  9.948318E-03  1.010000E-15  1.010000E-15  1.010000E-15  0.000000E+00  1.000000E+00  0.000000E+00  1.067845E+06  1.000000E+03  3.720000E+00  2.285517E+03  1.627641E-06
    1350.0000    1050.0000   -4375.0000   3.945775E+07  2.449533E+02  0.000000E+00  1.000000E+00  1.000000E+00  0.000000E+00  0.000000E+00  1.829808E+01  8.404685E+02  9.897273E-03  1.010000E-15  1.010000E-15  1.010000E-15  0.000000E+00  1.000000E+00  0.000000E+00  1.067839E+06  1.000000E+03  3.720000E+00  2.285555E+03  1.627614E-06
    1350.0000    1050.0000   -4125.0000   3.529185E+07  2.452078E+02  0.000000E+00  1.000000E+00  1.000000E+00  0.000000E+00  0.000000E+00  1.838011E+01  8.367208E+02  9.846519E-03  1.010000E-15  1.010000E-15  1.010000E-15  0.000000E+00  1.000000E+00  0.000000E+00  1.067820E+06  1.000000E+03  3.720000E+00  2.285592E+03  1.627587E-06
    1350.0000    1050.0000   -3875.0000   3.213479E+07  2.453851E+02  0.000000E+00  1.000000E+00  1.000000E+00  0.000000E+00  0.000000E+00  1.843743E+01  8.338188E+02  1.965561E-01  2.000095E-14  2.000095E-14  2.000095E-14  0.000000E+00  1.000000E+00  0.000000E+00  1.067802E+06  1.000000E+03  3.720000E+00  2.011813E+03  1.849078E-06
    1350.0000    1050.0000   -3625.0000   3.004733E+07  2.454911E+02  0.000000E+00  1.000000E+00  1.000000E+00  0.000000E+00  0.000000E+00  1.847179E+01  8.318734E+02  1.968524E-01  2.000095E-14  2.000095E-14  2.000095E-14  0.000000E+00  1.000000E+00  0.000000E+00  1.067774E+06  1.000000E+03  3.720000E+00  2.010996E+03  1.849830E-06
    1350.0000    1050.0000   -3375.0000   2.798064E+07  2.455150E+02  0.000000E+00  1.000000E+00  1.000000E+00  0.000000E+00  0.000000E+00  1.847952E+01  8.300194E+02  1.971616E-01  2.000095E-14  2.000095E-14  2.000095E-14  0.000000E+00  1.000000E+00  0.000000E+00  1.067401E+06  1.000000E+03  3.720000E+00  2.010176E+03  1.850584E-06
    1350.0000    1050.0000   -3125.0000   2.592493E+07  2.447948E+02  0.000000E+00  1.000000E+00  1.000000E+00  0.000000E+00  0.000000E+00  1.824718E+01  8.291186E+02  1.974737E-01  2.000092E-14  2.000092E-14  2.000092E-14  0.000000E+00  1.000000E+00  0.000000E+00  1.063638E+06  1.000000E+03  3.720000E+00  2.009540E+03  1.851170E-06
    1350.0000    1050.0000   -2875.0000   2.387345E+07  2.383872E+02  0.000000E+00  1.000000E+00  1.000000E+00  0.000000E+00  0.000000E+00  1.628787E+01  8.356078E+02  1.977546E-01  2.000074E-14  2.000074E-14  2.000074E-14  0.000000E+00  1.000000E+00  0.000000E+00  1.033793E+06  1.000000E+03  3.720000E+00  2.010410E+03  1.850369E-06
    1350.0000    1050.0000   -2625.0000   2.180479E+07  2.178314E+02  0.000000E+00  1.000000E+00  1.000000E+00  0.000000E+00  0.000000E+00  1.115512E+01  8.592108E+02  1.979397E-01  2.000026E-14  2.000026E-14  2.000026E-14  0.000000E+00  1.000000E+00  0.000000E+00  9.402660E+05  1.000000E+03  3.720000E+00  2.014811E+03  1.846327E-06
    1350.0000    1050.0000   -2375.0000   1.971563E+07  2.116343E+02  0.000000E+00  1.000000E+00  1.000000E+00  0.000000E+00  0.000000E+00  9.903441E+00  8.648769E+02  1.981977E-01  2.000014E-14  2.000014E-14  2.000014E-14  0.000000E+00  1.000000E+00  0.000000E+00  9.117988E+05  1.000000E+03  3.720000E+00  2.015562E+03  1.845639E-06
    1350.0000    1050.0000   -2125.0000   1.762670E+07  2.170193E+02  0.000000E+00  1.000000E+00  1.000000E+00  0.000000E+00  0.000000E+00  1.098404E+01  8.569457E+02  1.985247E-01  2.000025E-14  2.000025E-14  2.000025E-14  0.000000E+00  1.000000E+00  0.000000E+00  9.350659E+05  1.000000E+03  3.720000E+00  2.013518E+03  1.847513E-06
    1350.0000    1050.0000   -1875.0000   1.555041E+07  2.294049E+02  0.000000E+00  1.000000E+00  1.000000E+00  0.000000E+00  0.000000E+00  1.384413E+01  8.398884E+02  1.989006E-01  2.000051E-14  2.000051E-14  2.000051E-14  0.000000E+00  1.000000E+00  0.000000E+00  9.905103E+05  1.000000E+03  3.720000E+00  2.009583E+03  1.851130E-06
    1350.0000    1050.0000   -1625.0000   1.348827E+07  2.344129E+02  0.000000E+00  1.000000E+00  1.000000E+00  0.000000E+00  0.000000E+00  1.516513E+01  8.314948E+02  1.992385E-01  2.000063E-14  2.000063E-14  2.000063E-14  0.000000E+00  1.000000E+00  0.000000E+00  1.013023E+06  1.000000E+03  3.720000E+00  2.007417E+03  1.853127E-06
    1350.0000    1050.0000   -1375.0000   1.143623E+07  2.364175E+02  0.000000E+00  1.000000E+00  1.000000E+00  0.000000E+00  0.000000E+00  1.572292E+01  8.268673E+02  1.995598E-01  2.000067E-14  2.000067E-14  2.000067E-14  0.000000E+00  1.000000E+00  0.000000E+00  1.021894E+06  1.000000E+03  3.720000E+00  2.006022E+03  1.854416E-06
    1350.0000    1050.0000   -1125.0000   9.391496E+06  2.353109E+02  0.000000E+00  1.000000E+00  1.000000E+00  0.000000E+00  0.000000E+00  1.541290E+01  8.264153E+02  1.998635E-01  2.000064E-14  2.000064E-14  2.000064E-14  0.000000E+00  1.000000E+00  0.000000E+00  1.016345E+06  1.000000E+03  3.720000E+00  2.005484E+03  1.854914E-06
    1350.0000    1050.0000    -875.0000   7.343539E+06  2.171249E+02  0.000000E+00  1.000000E+00  1.000000E+00  0.000000E+00  0.000000E+00  1.100616E+01  8.484526E+02  2.001250E-01  1.000000E-15  1.000000E-15  1.000000E-15  0.000000E+00  1.000000E+00  0.000000E+00  9.319897E+05  1.000000E+03  3.720000E+00  1.865532E+03  1.994070E-06
    1350.0000    1050.0000    -625.0000   5.296236E+06  2.013187E+02  0.000000E+00  1.000000E+00  1.000000E+00  0.000000E+00  0.000000E+00  8.076357E+00  8.660170E+02  2.003570E-01  1.000000E-15  1.000000E-15  1.000000E-15  0.000000E+00  1.000000E+00  0.000000E+00  8.598206E+05  1.000000E+03  3.720000E+00  1.868756E+03  1.990629E-06
    1350.0000    1050.0000    -375.0000   3.230856E+06  1.769228E+02  0.000000E+00  1.000000E+00  1.000000E+00  0.000000E+00  0.000000E+00  4.820731E+00  8.916892E+02  2.005253E-01  1.000000E-15  1.000000E-15  1.000000E-15  0.000000E+00  1.000000E+00  0.000000E+00  7.507352E+05  1.000000E+03  3.720000E+00  1.873693E+03  1.985384E-06
    1350.0000    1050.0000    -127.5000   1.125053E+06  1.111944E+02  0.000000E+00  1.000000E+00  1.000000E+00  0.000000E+00  0.000000E+00  8.580059E-01  9.502629E+02  2.004039E-01  1.000000E-15  1.000000E-15  1.000000E-15  0.000000E+00  1.000000E+00  0.000000E+00  4.670786E+05  1.000000E+03  3.720000E+00  1.885580E+03  1.972868E-06
    1350.0000    1050.0000      -2.5000   2.126663E+04  2.511250E+01  0.000000E+00  1.000000E+00  1.000000E+00  0.000000E+00  0.000000E+00  2.318690E-02  9.970953E+02  1.000000E+00  1.000000E-10  1.000000E-10  1.000000E-10  0.000000E+00  1.000000E+00  0.000000E+00  1.052537E+05  4.000000E+03  6.100000E-01  9.970953E+02  1.529443E-07
    1350.0000    1125.0000   -4875.0000   4.780417E+07  2.443750E+02  0.000000E+00  1.000000E+00  1.000000E+00  0.000000E+00  0.000000E+00  1.811289E+01  8.477242E+02  1.000000E-02  1.010000E-15  1.010000E-15  1.010000E-15  0.000000E+00  1.000000E+00  0.000000E+00  1.067851E+06  1.000000E+03  3.720000E+00  2.285477E+03  1.627669E-06
    1350.0000    1125.0000   -4625.0000   4.362302E+07  2.446748E+02  0.000000E+00  1.000000E+00  1.000000E+00  0.000000E+00  0.000000E+00  1.820868E+01  8.441308E+02  9.948255E-03  1.010000E-15  1.010000E-15  1.010000E-15  0.000000E+00  1.000000E+00  0.000000E+00  1.067845E+06  1.000000E+03  3.720000E+00  2.285517E+03  1.627641E-06
    1350.0000    1125.0000   -4375.0000   3.945183E+07  2.449537E+02  0.000000E+00  1.000000E+00  1.000000E+00  0.000000E+00  0.000000E+00  1.829820E+01  8.404633E+02  9.897085E-03  1.010000E-15  1.010000E-15  1.010000E-15  0.000000E+00  1.000000E+00  0.000000E+00  1.067839E+06  1.000000E+03  3.720000E+00  2.285555E+03  1.627614E-06
    1350.0000    1125.0000   -4125.0000   3.527325E+07  2.452088E+02  0.000000E+00  1.000000E+00  1.000000E+00  0.000000E+00  0.000000E+00  1.838044E+01  8.367039E+02  9.845931E-03  1.010000E-15  1.010000E-15  1.010000E-15  0.000000E+00  1.000000E+00  0.000000E+00  1.067819E+06  1.000000E+03  3.720000E+00  2.285592E+03  1.627587E-06