Title="TOUGHREACT V3.85omp : flowvector.tec: Liq & Gas Fluxes (kg/s/m^2), Pore Velocities (m/s), & Heat Fluxes (J/s/m2)"
Variables= "X(m)"     "Y(m)"      "Z(m)"     "FluxLiq"   "FluxLiq_X"   "FluxLiq_Y"   "FluxLiq_Z"   "PorVelLiq"  "PorVelLiqX"  "PorVelLiqY"  "PorVelLiqZ"     "FluxGas"   "FluxGas_X"   "FluxGas_Y"   "FluxGas_Z"   "PorVelGas"  "PorVelGasX"  "PorVelGasY"  "PorVelGasZ"    "HeatFlux"  "HeatFlux_X"  "HeatFlux_Y"  "HeatFlux_Z"
Zone T= "0.00000000E+00 sec" I=     231 J=       1 K=       1 F=Point SolutionTime= 0.00000000E+00
    1350.0000     250.0000   -4875.0000   2.945217E-05  0.000000E+00  0.000000E+00  2.945217E-05  3.481576E-06  0.000000E+00  0.000000E+00  3.481576E-06  0.000000E+00  0.000000E+00  0.000000E+00  0.000000E+00  0.000000E+00  0.000000E+00  0.000000E+00  0.000000E+00  3.144832E+01  0.000000E+00  0.000000E+00  3.144832E+01
    1350.0000     250.0000   -4625.0000   5.883140E-05  0.000000E+00  1.484237E-07  5.883122E-05  6.987059E-06  0.000000E+00  1.767185E-08  6.987036E-06  0.000000E+00  0.000000E+00  0.000000E+00  0.000000E+00  0.000000E+00  0.000000E+00  0.000000E+00  0.000000E+00  6.281875E+01  0.000000E+00  1.584883E-01  6.281855E+01
    1350.0000     250.0000   -4375.0000   5.859821E-05  0.000000E+00  3.255835E-07  5.859730E-05  7.024525E-06  0.000000E+00  3.912728E-08  7.024416E-06  0.000000E+00  0.000000E+00  0.000000E+00  0.000000E+00  0.000000E+00  0.000000E+00  0.000000E+00  0.000000E+00  6.256974E+01  0.000000E+00  3.476601E-01  6.256877E+01
    1350.0000     250.0000   -4125.0000   5.817059E-05  0.000000E+00  5.423573E-07  5.816807E-05  7.036663E-06  0.000000E+00  6.578649E-08  7.036355E-06  0.000000E+00  0.000000E+00  0.000000E+00  0.000000E+00  0.000000E+00  0.000000E+00  0.000000E+00  0.000000E+00  6.211313E+01  0.000000E+00  5.791237E-01  6.211043E+01
    1350.0000     250.0000   -3875.0000   5.308039E-05  0.000000E+00  1.297172E-05  5.147099E-05  3.655704E-06  0.000000E+00  7.907744E-08  3.654849E-06  0.000000E+00  0.000000E+00  0.000000E+00  0.000000E+00  0.000000E+00  0.000000E+00  0.000000E+00  0.000000E+00  5.667784E+01  0.000000E+00  1.385123E+01  5.495926E+01
    1350.0000     250.0000   -3625.0000   4.088738E-05  0.000000E+00  1.206322E-05  3.906733E-05  2.496270E-07  0.000000E+00  7.361005E-08  2.385271E-07  0.000000E+00  0.000000E+00  0.000000E+00  0.000000E+00  0.000000E+00  0.000000E+00  0.000000E+00  0.000000E+00  4.365815E+01  0.000000E+00  1.288092E+01  4.171470E+01
    1350.0000     250.0000   -3375.0000   2.976787E-05  0.000000E+00  1.086847E-05  2.771286E-05  1.818654E-07  0.000000E+00  6.637336E-08  1.693210E-07  0.000000E+00  0.000000E+00  0.000000E+00  0.000000E+00  0.000000E+00  0.000000E+00  0.000000E+00  0.000000E+00  3.178518E+01  0.000000E+00  1.160262E+01  2.959184E+01
    1350.0000     250.0000   -3125.0000   2.005021E-05  0.000000E+00  9.902279E-06  1.743433E-05  1.224037E-07  0.000000E+00  6.046587E-08  1.064262E-07  0.000000E+00  0.000000E+00  0.000000E+00  0.000000E+00  0.000000E+00  0.000000E+00  0.000000E+00  0.000000E+00  2.140898E+01  0.000000E+00  1.054529E+01  1.863173E+01
    1350.0000     250.0000   -2875.0000   1.221557E-05  0.000000E+00  9.279541E-06  7.944197E-06  7.411861E-08  0.000000E+00  5.630014E-08  4.820645E-08  0.000000E+00  0.000000E+00  0.000000E+00  0.000000E+00  0.000000E+00  0.000000E+00  0.000000E+00  0.000000E+00  1.296950E+01  0.000000E+00  9.691288E+00  8.618977E+00
    1350.0000     250.0000   -2625.0000   8.525996E-06  0.000000E+00  8.484222E-06 -8.429587E-07  5.014888E-08  0.000000E+00  4.993382E-08 -4.639338E-09  0.000000E+00  0.000000E+00  0.000000E+00  0.000000E+00  0.000000E+00  0.000000E+00  0.000000E+00  0.000000E+00  8.023921E+00  0.000000E+00  8.022487E+00 -1.516961E-01
    1350.0000     250.0000   -2375.0000   1.126205E-05  0.000000E+00  7.243794E-06 -8.623295E-06  6.497460E-08  0.000000E+00  4.182353E-08 -4.972416E-08  0.000000E+00  0.000000E+00  0.000000E+00  0.000000E+00  0.000000E+00  0.000000E+00  0.000000E+00  0.000000E+00  9.579412E+00  0.000000E+00  6.279033E+00 -7.234561E+00
    1350.0000     250.0000   -2125.0000   1.612615E-05  0.000000E+00  5.757698E-06 -1.506325E-05  9.254769E-08  0.000000E+00  3.317799E-08 -8.639615E-08  0.000000E+00  0.000000E+00  0.000000E+00  0.000000E+00  0.000000E+00  0.000000E+00  0.000000E+00  0.000000E+00  1.365582E+01  0.000000E+00  4.870203E+00 -1.275785E+01
    1350.0000     250.0000   -1875.0000   2.024201E-05  0.000000E+00  3.894619E-06 -1.986381E-05  1.159873E-07  0.000000E+00  2.251322E-08 -1.137814E-07  0.000000E+00  0.000000E+00  0.000000E+00  0.000000E+00  0.000000E+00  0.000000E+00  0.000000E+00  0.000000E+00  1.710108E+01  0.000000E+00  3.239817E+00 -1.679139E+01
    1350.0000     250.0000   -1625.0000   2.214657E-05  0.000000E+00  6.149069E-07 -2.213803E-05  1.267962E-07  0.000000E+00  3.577300E-09 -1.267457E-07  0.000000E+00  0.000000E+00  0.000000E+00  0.000000E+00  0.000000E+00  0.000000E+00  0.000000E+00  0.000000E+00  1.863973E+01  0.000000E+00  4.143911E-01 -1.863513E+01
    1350.0000     250.0000   -1375.0000   2.055442E-05  0.000000E+00 -5.319756E-06 -1.985407E-05  1.175445E-07  0.000000E+00 -3.101700E-08 -1.133784E-07  0.000000E+00  0.000000E+00  0.000000E+00  0.000000E+00  0.000000E+00  0.000000E+00  0.000000E+00  0.000000E+00  1.710144E+01  0.000000E+00 -5.260464E+00 -1.627227E+01
    1350.0000     250.0000   -1125.0000   1.697805E-05  0.000000E+00 -1.317250E-05 -1.071164E-05  9.712205E-08  0.000000E+00 -7.590029E-08 -6.059570E-08  0.000000E+00  0.000000E+00  0.000000E+00  0.000000E+00  0.000000E+00  0.000000E+00  0.000000E+00  0.000000E+00  1.441387E+01  0.000000E+00 -1.224603E+01 -7.602271E+00
    1350.0000     250.0000    -875.0000   3.841155E-06  0.000000E+00 -7.728684E-07 -3.762598E-06  2.075909E-08  0.000000E+00 -4.200533E-09 -2.032967E-08  0.000000E+00  0.000000E+00  0.000000E+00  0.000000E+00  0.000000E+00  0.000000E+00  0.000000E+00  0.000000E+00  1.347583E+00  0.000000E+00 -6.982796E-01 -1.152556E+00
    1350.0000     250.0000    -625.0000   3.090246E-06  0.000000E+00 -6.334056E-07 -3.024635E-06  1.612456E-08  0.000000E+00 -3.333988E-09 -1.577612E-08  0.000000E+00  0.000000E+00  0.000000E+00  0.000000E+00  0.000000E+00  0.000000E+00  0.000000E+00  0.000000E+00  7.356008E-01  0.000000E+00 -5.129579E-01 -5.272407E-01
    1350.0000     250.0000    -375.0000   2.541743E-06  0.000000E+00 -3.920296E-07 -2.511329E-06  1.298445E-08  0.000000E+00 -2.015216E-09 -1.282711E-08  0.000000E+00  0.000000E+00  0.000000E+00  0.000000E+00  0.000000E+00  0.000000E+00  0.000000E+00  0.000000E+00  3.215154E-01  0.000000E+00 -2.975527E-01 -1.217971E-01
    1350.0000     250.0000    -127.5000   2.280215E-06  0.000000E+00 -7.592994E-08 -2.278950E-06  7.000744E-09  0.000000E+00 -3.832235E-10 -6.990247E-09  0.000000E+00  0.000000E+00  0.000000E+00  0.000000E+00  0.000000E+00  0.000000E+00  0.000000E+00  0.000000E+00  1.021729E-01  0.000000E+00 -7.863193E-02  6.524050E-02
    1350.0000     250.0000      -2.5000   1.120947E-06  0.000000E+00  0.000000E+00 -1.120947E-06  1.126212E-09  0.000000E+00  0.000000E+00 -1.126212E-09  0.000000E+00  0.000000E+00  0.000000E+00  0.000000E+00  0.000000E+00  0.000000E+00  0.000000E+00  0.000000E+00  5.186868E-02  0.000000E+00  0.000000E+00  5.186868E-02
    1350.0000     650.0000   -4875.0000   2.968789E-05  0.000000E+00  0.000000E+00  2.968789E-05  3.509471E-06  0.000000E+00  0.000000E+00  3.509471E-06  0.000000E+00  0.000000E+00  0.000000E+00  0.000000E+00  0.000000E+00  0.000000E+00  0.000000E+00  0.000000E+00  3.170002E+01  0.000000E+00  0.000000E+00  3.170002E+01
    1350.0000     650.0000   -4625.0000   5.934914E-05  0.000000E+00  3.305646E-07  5.934822E-05  7.048889E-06  0.000000E+00  3.935966E-08  7.048779E-06  0.000000E+00  0.000000E+00  0.000000E+00  0.000000E+00  0.000000E+00  0.000000E+00  0.000000E+00  0.000000E+00  6.337159E+01  0.000000E+00  3.529800E-01  6.337061E+01
    1350.0000     650.0000   -4375.0000   5.922779E-05  0.000000E+00  7.692451E-07  5.922279E-05  7.100917E-06  0.000000E+00  9.245276E-08  7.100315E-06  0.000000E+00  0.000000E+00  0.000000E+00  0.000000E+00  0.000000E+00  0.000000E+00  0.000000E+00  0.000000E+00  6.324200E+01  0.000000E+00  8.214046E-01  6.323667E+01
    1350.0000     650.0000   -4125.0000   5.887051E-05  0.000000E+00  1.409852E-06  5.885362E-05  7.122877E-06  0.000000E+00  1.710383E-07  7.120823E-06  0.000000E+00  0.000000E+00  0.000000E+00  0.000000E+00  0.000000E+00  0.000000E+00  0.000000E+00  0.000000E+00  6.286050E+01  0.000000E+00  1.505425E+00  6.284247E+01
    1350.0000     650.0000   -3875.0000   6.177790E-05  0.000000E+00  3.578365E-05  5.035911E-05  3.694884E-06  0.000000E+00  2.181860E-07  3.688436E-06  0.000000E+00  0.000000E+00  0.000000E+00  0.000000E+00  0.000000E+00  0.000000E+00  0.000000E+00  0.000000E+00  6.596528E+01  0.000000E+00  3.820984E+01  5.377198E+01
    1350.0000     650.0000   -3625.0000   4.781920E-05  0.000000E+00  3.181147E-05  3.570304E-05  2.919570E-07  0.000000E+00  1.941492E-07  2.180481E-07  0.000000E+00  0.000000E+00  0.000000E+00  0.000000E+00  0.000000E+00  0.000000E+00  0.000000E+00  0.000000E+00  5.105995E+01  0.000000E+00  3.396771E+01  3.812234E+01
    1350.0000     650.0000   -3375.0000   3.682954E-05  0.000000E+00  2.773023E-05  2.423736E-05  2.250047E-07  0.000000E+00  1.693726E-07  1.481218E-07  0.000000E+00  0.000000E+00  0.000000E+00  0.000000E+00  0.000000E+00  0.000000E+00  0.000000E+00  0.000000E+00  3.932121E+01  0.000000E+00  2.960266E+01  2.588127E+01
    1350.0000     650.0000   -3125.0000   2.907199E-05  0.000000E+00  2.501853E-05  1.480720E-05  1.775181E-07  0.000000E+00  1.527772E-07  9.039815E-08  0.000000E+00  0.000000E+00  0.000000E+00  0.000000E+00  0.000000E+00  0.000000E+00  0.000000E+00  0.000000E+00  3.098674E+01  0.000000E+00  2.663780E+01  1.583054E+01
    1350.0000     650.0000   -2875.0000   2.432613E-05  0.000000E+00  2.352180E-05  6.203659E-06  1.475232E-07  0.000000E+00  1.426315E-07  3.767448E-08  0.000000E+00  0.000000E+00  0.000000E+00  0.000000E+00  0.000000E+00  0.000000E+00  0.000000E+00  0.000000E+00  2.546261E+01  0.000000E+00  2.454442E+01  6.776131E+00
    1350.0000     650.0000   -2625.0000   2.114151E-05  0.000000E+00  2.108612E-05 -1.529294E-06  1.243670E-07  0.000000E+00  1.240569E-07 -8.776873E-09  0.000000E+00  0.000000E+00  0.000000E+00  0.000000E+00  0.000000E+00  0.000000E+00  0.000000E+00  0.000000E+00  1.996013E+01  0.000000E+00  1.993801E+01 -9.394842E-01
    1350.0000     650.0000   -2375.0000   1.834388E-05  0.000000E+00  1.687931E-05 -7.182409E-06  1.062152E-07  0.000000E+00  9.770064E-08 -4.166842E-08  0.000000E+00  0.000000E+00  0.000000E+00  0.000000E+00  0.000000E+00  0.000000E+00  0.000000E+00  0.000000E+00  1.605415E+01  0.000000E+00  1.478626E+01 -6.253175E+00
    1350.0000     650.0000   -2125.0000   1.524784E-05  0.000000E+00  1.176598E-05 -9.698365E-06  8.828892E-08  0.000000E+00  6.809473E-08 -5.619646E-08  0.000000E+00  0.000000E+00  0.000000E+00  0.000000E+00  0.000000E+00  0.000000E+00  0.000000E+00  0.000000E+00  1.336957E+01  0.000000E+00  1.013759E+01 -8.716346E+00
    1350.0000     650.0000   -1875.0000   1.055510E-05  0.000000E+00  5.902140E-06 -8.750705E-06  6.145561E-08  0.000000E+00  3.429077E-08 -5.099936E-08  0.000000E+00  0.000000E+00  0.000000E+00  0.000000E+00  0.000000E+00  0.000000E+00  0.000000E+00  0.000000E+00  9.575537E+00  0.000000E+00  4.987224E+00 -8.174259E+00
    1350.0000     650.0000   -1625.0000   5.527810E-06  0.000000E+00 -1.697593E-06 -5.260690E-06  3.255546E-08  0.000000E+00 -1.017989E-08 -3.092293E-08  0.000000E+00  0.000000E+00  0.000000E+00  0.000000E+00  0.000000E+00  0.000000E+00  0.000000E+00  0.000000E+00  5.467153E+00  0.000000E+00 -1.961591E+00 -5.103129E+00
    1350.0000     650.0000   -1375.0000   1.192773E-05  0.000000E+00 -1.164271E-05 -2.591930E-06  7.053941E-08  0.000000E+00 -6.885480E-08 -1.532399E-08  0.000000E+00  0.000000E+00  0.000000E+00  0.000000E+00  0.000000E+00  0.000000E+00  0.000000E+00  0.000000E+00  1.193146E+01  0.000000E+00 -1.168443E+01 -2.415335E+00
    1350.0000     650.0000   -1125.0000   2.606868E-05  0.000000E+00 -2.592181E-05 -2.763330E-06  1.522971E-07  0.000000E+00 -1.514602E-07 -1.594396E-08  0.000000E+00  0.000000E+00  0.000000E+00  0.000000E+00  0.000000E+00  0.000000E+00  0.000000E+00  0.000000E+00  2.498921E+01  0.000000E+00 -2.492898E+01 -1.733916E+00
    1350.0000     650.0000    -875.0000   3.747748E-06  0.000000E+00 -1.583482E-06 -3.396793E-06  2.082493E-08  0.000000E+00 -8.756705E-09 -1.889438E-08  0.000000E+00  0.000000E+00  0.000000E+00  0.000000E+00  0.000000E+00  0.000000E+00  0.000000E+00  0.000000E+00  2.202195E+00  0.000000E+00 -1.605581E+00 -1.507241E+00
    1350.0000     650.0000    -625.0000   3.475471E-06  0.000000E+00 -1.476711E-06 -3.146144E-06  1.860715E-08  0.000000E+00 -7.919776E-09 -1.683756E-08  0.000000E+00  0.000000E+00  0.000000E+00  0.000000E+00  0.000000E+00  0.000000E+00  0.000000E+00  0.000000E+00  1.717907E+00  0.000000E+00 -1.412994E+00 -9.770625E-01
    1350.0000     650.0000    -375.0000   2.855908E-06  0.000000E+00 -1.200929E-06 -2.591135E-06  1.487390E-08  0.000000E+00 -6.280227E-09 -1.348302E-08  0.000000E+00  0.000000E+00  0.000000E+00  0.000000E+00  0.000000E+00  0.000000E+00  0.000000E+00  0.000000E+00  1.099830E+00  0.000000E+00 -1.074553E+00 -2.344373E-01
    1350.0000     650.0000    -127.5000   2.098506E-06  0.000000E+00 -3.493895E-07 -2.069216E-06  6.913289E-09  0.000000E+00 -1.775799E-09 -6.681325E-09  0.000000E+00  0.000000E+00  0.000000E+00  0.000000E+00  0.000000E+00  0.000000E+00  0.000000E+00  0.000000E+00  4.913906E-01  0.000000E+00 -3.583960E-01  3.361800E-01
    1350.0000     650.0000      -2.5000   9.527920E-07  0.000000E+00  0.000000E+00 -9.527920E-07  9.599595E-10  0.000000E+00  0.000000E+00 -9.599595E-10  0.000000E+00  0.000000E+00  0.000000E+00  0.000000E+00  0.000000E+00  0.000000E+00  0.000000E+00  0.000000E+00  2.505652E-01  0.000000E+00  0.000000E+00  2.505652E-01
    1350.0000     900.0000   -4875.0000   2.986868E-05  0.000000E+00  0.000000E+00  2.986868E-05  3.530865E-06  0.000000E+00  0.000000E+00  3.530865E-06  0.000000E+00  0.000000E+00  0.000000E+00  0.000000E+00  0.000000E+00  0.000000E+00  0.000000E+00  0.000000E+00  3.189307E+01  0.000000E+00  0.000000E+00  3.189307E+01
    1350.0000     900.0000   -4625.0000   5.978940E-05  0.000000E+00  3.233224E-07  5.978853E-05  7.101472E-06  0.000000E+00  3.849938E-08  7.101368E-06  0.000000E+00  0.000000E+00  0.000000E+00  0.000000E+00  0.000000E+00  0.000000E+00  0.000000E+00  0.000000E+00  6.384171E+01  0.000000E+00  3.452468E-01  6.384078E+01
    1350.0000     900.0000   -4375.0000   5.990879E-05  0.000000E+00  8.358574E-07  5.990296E-05  7.183415E-06  0.000000E+00  1.004709E-07  7.182712E-06  0.000000E+00  0.000000E+00  0.000000E+00  0.000000E+00  0.000000E+00  0.000000E+00  0.000000E+00  0.000000E+00  6.396918E+01  0.000000E+00  8.925335E-01  6.396296E+01
    1350.0000     900.0000   -4125.0000   5.984173E-05  0.000000E+00  1.854372E-06  5.981299E-05  7.241968E-06  0.000000E+00  2.250178E-07  7.238472E-06  0.000000E+00  0.000000E+00  0.000000E+00  0.000000E+00  0.000000E+00  0.000000E+00  0.000000E+00  0.000000E+00  6.389757E+01  0.000000E+00  1.980080E+00  6.386688E+01
    1350.0000     900.0000   -3875.0000   7.288070E-05  0.000000E+00  5.498285E-05  4.783808E-05  3.751259E-06  0.000000E+00  3.353548E-07  3.736239E-06  0.000000E+00  0.000000E+00  0.000000E+00  0.000000E+00  0.000000E+00  0.000000E+00  0.000000E+00  0.000000E+00  7.782108E+01  0.000000E+00  5.871075E+01  5.108002E+01
    1350.0000     900.0000   -3625.0000   5.344804E-05  0.000000E+00  4.439763E-05  2.975808E-05  3.263595E-07  0.000000E+00  2.710368E-07  1.817954E-07  0.000000E+00  0.000000E+00  0.000000E+00  0.000000E+00  0.000000E+00  0.000000E+00  0.000000E+00  0.000000E+00  5.707030E+01  0.000000E+00  4.740682E+01  3.177441E+01
    1350.0000     900.0000   -3375.0000   4.163600E-05  0.000000E+00  3.674993E-05  1.957036E-05  2.543950E-07  0.000000E+00  2.245128E-07  1.196277E-07  0.000000E+00  0.000000E+00  0.000000E+00  0.000000E+00  0.000000E+00  0.000000E+00  0.000000E+00  0.000000E+00  4.444913E+01  0.000000E+00  3.922965E+01  2.089881E+01
    1350.0000     900.0000   -3125.0000   3.522493E-05  0.000000E+00  3.320395E-05  1.175982E-05  2.151088E-07  0.000000E+00  2.027763E-07  7.178830E-08  0.000000E+00  0.000000E+00  0.000000E+00  0.000000E+00  0.000000E+00  0.000000E+00  0.000000E+00  0.000000E+00  3.751285E+01  0.000000E+00  3.533829E+01  1.258647E+01
    1350.0000     900.0000   -2875.0000   3.223871E-05  0.000000E+00  3.208052E-05  3.189748E-06  1.953073E-07  0.000000E+00  1.943306E-07  1.950791E-08  0.000000E+00  0.000000E+00  0.000000E+00  0.000000E+00  0.000000E+00  0.000000E+00  0.000000E+00  0.000000E+00  3.357210E+01  0.000000E+00  3.336891E+01  3.687992E+00
    1350.0000     900.0000   -2625.0000   2.828526E-05  0.000000E+00  2.783557E-05 -5.023656E-06  1.663079E-07  0.000000E+00  1.636820E-07 -2.943645E-08  0.000000E+00  0.000000E+00  0.000000E+00  0.000000E+00  0.000000E+00  0.000000E+00  0.000000E+00  0.000000E+00  2.659023E+01  0.000000E+00  2.623714E+01 -4.318941E+00
    1350.0000     900.0000   -2375.0000   2.187329E-05  0.000000E+00  1.974087E-05 -9.420122E-06  1.271757E-07  0.000000E+00  1.147135E-07 -5.490410E-08  0.000000E+00  0.000000E+00  0.000000E+00  0.000000E+00  0.000000E+00  0.000000E+00  0.000000E+00  0.000000E+00  1.949196E+01  0.000000E+00  1.755234E+01 -8.476538E+00
    1350.0000     900.0000   -2125.0000   1.345628E-05  0.000000E+00  1.037119E-05 -8.573792E-06  7.848477E-08  0.000000E+00  6.046632E-08 -5.003682E-08  0.000000E+00  0.000000E+00  0.000000E+00  0.000000E+00  0.000000E+00  0.000000E+00  0.000000E+00  0.000000E+00  1.217687E+01  0.000000E+00  9.168215E+00 -8.013736E+00
    1350.0000     900.0000   -1875.0000   3.249119E-06  0.000000E+00  7.490181E-07 -3.161605E-06  1.900555E-08  0.000000E+00  4.296989E-09 -1.851342E-08  0.000000E+00  0.000000E+00  0.000000E+00  0.000000E+00  0.000000E+00  0.000000E+00  0.000000E+00  0.000000E+00  3.158002E+00  0.000000E+00  3.831274E-01 -3.134675E+00
    1350.0000     900.0000   -1625.0000   8.013970E-06  0.000000E+00 -7.259918E-06  3.393716E-06  4.806592E-08  0.000000E+00 -4.352150E-08  2.040128E-08  0.000000E+00  0.000000E+00  0.000000E+00  0.000000E+00  0.000000E+00  0.000000E+00  0.000000E+00  0.000000E+00  8.124357E+00  0.000000E+00 -7.440420E+00  3.262719E+00
    1350.0000     900.0000   -1375.0000   1.420455E-05  0.000000E+00 -1.285124E-05  6.051005E-06  8.542889E-08  0.000000E+00 -7.728805E-08  3.639578E-08  0.000000E+00  0.000000E+00  0.000000E+00  0.000000E+00  0.000000E+00  0.000000E+00  0.000000E+00  0.000000E+00  1.446764E+01  0.000000E+00 -1.313892E+01  6.056527E+00
    1350.0000     900.0000   -1125.0000   2.284914E-05  0.000000E+00 -2.276445E-05  1.965487E-06  1.364052E-07  0.000000E+00 -1.358788E-07  1.197223E-08  0.000000E+00  0.000000E+00  0.000000E+00  0.000000E+00  0.000000E+00  0.000000E+00  0.000000E+00  0.000000E+00  2.306810E+01  0.000000E+00 -2.294188E+01  2.409814E+00
    1350.0000     900.0000    -875.0000   2.663447E-06  0.000000E+00 -1.392821E-06 -2.270242E-06  1.522980E-08  0.000000E+00 -7.935292E-09 -1.299915E-08  0.000000E+00  0.000000E+00  0.000000E+00  0.000000E+00  0.000000E+00  0.000000E+00  0.000000E+00  0.000000E+00  2.151233E+00  0.000000E+00 -1.709262E+00 -1.306227E+00
    1350.0000     900.0000    -625.0000   3.164339E-06  0.000000E+00 -1.563812E-06 -2.750915E-06  1.752529E-08  0.000000E+00 -8.657003E-09 -1.523785E-08  0.000000E+00  0.000000E+00  0.000000E+00  0.000000E+00  0.000000E+00  0.000000E+00  0.000000E+00  0.000000E+00  2.327754E+00  0.000000E+00 -1.913074E+00 -1.326117E+00
    1350.0000     900.0000    -375.0000   3.152942E-06  0.000000E+00 -1.856069E-06 -2.548735E-06  1.693418E-08  0.000000E+00 -9.996078E-09 -1.366912E-08  0.000000E+00  0.000000E+00  0.000000E+00  0.000000E+00  0.000000E+00  0.000000E+00  0.000000E+00  0.000000E+00  2.124455E+00  0.000000E+00 -2.066956E+00 -4.909197E-01
    1350.0000     900.0000    -127.5000   1.984293E-06  0.000000E+00 -8.628209E-07 -1.786886E-06  7.885007E-09  0.000000E+00 -4.449092E-09 -6.509909E-09  0.000000E+00  0.000000E+00  0.000000E+00  0.000000E+00  0.000000E+00  0.000000E+00  0.000000E+00  0.000000E+00  1.214522E+00  0.000000E+00 -9.809832E-01  7.160549E-01
    1350.0000     900.0000      -2.5000   6.767506E-07  0.000000E+00  0.000000E+00 -6.767506E-07  6.866523E-10  0.000000E+00  0.000000E+00 -6.866523E-10  0.000000E+00  0.000000E+00  0.000000E+00  0.000000E+00  0.000000E+00  0.000000E+00  0.000000E+00  0.000000E+00  6.273113E-01  0.000000E+00  0.000000E+00  6.273113E-01
    1350.0000    1050.0000   -4875.0000   2.995275E-05  0.000000E+00  0.000000E+00  2.995275E-05  3.540814E-06  0.000000E+00  0.000000E+00  3.540814E-06  0.000000E+00  0.000000E+00  0.000000E+00  0.000000E+00  0.000000E+00  0.000000E+00  0.000000E+00  0.000000E+00  3.198285E+01  0.000000E+00  0.000000E+00  3.198285E+01
    1350.0000    1050.0000   -4625.0000   6.002253E-05  0.000000E+00  2.356186E-07  6.002206E-05  7.129318E-06  0.000000E+00  2.805716E-08  7.129263E-06  0.000000E+00  0.000000E+00  0.000000E+00  0.000000E+00  0.000000E+00  0.000000E+00  0.000000E+00  0.000000E+00  6.409064E+01  0.000000E+00  2.515958E-01  6.409015E+01
    1350.0000    1050.0000   -4375.0000   6.041034E-05  0.000000E+00  6.764405E-07  6.040655E-05  7.244082E-06  0.000000E+00  8.131634E-08  7.243626E-06  0.000000E+00  0.000000E+00  0.000000E+00  0.000000E+00  0.000000E+00  0.000000E+00  0.000000E+00  0.000000E+00  6.450474E+01  0.000000E+00  7.223073E-01  6.450070E+01
    1350.0000    1050.0000   -4125.0000   6.092100E-05  0.000000E+00  1.884305E-06  6.089185E-05  7.373797E-06  0.000000E+00  2.286941E-07  7.370250E-06  0.000000E+00  0.000000E+00  0.000000E+00  0.000000E+00  0.000000E+00  0.000000E+00  0.000000E+00  0.000000E+00  6.505002E+01  0.000000E+00  2.012043E+00  6.501889E+01
    1350.0000    1050.0000   -3875.0000   8.363118E-05  0.000000E+00  7.108496E-05  4.405794E-05  3.822245E-06  0.000000E+00  4.336916E-07  3.797561E-06  0.000000E+00  0.000000E+00  0.000000E+00  0.000000E+00  0.000000E+00  0.000000E+00  0.000000E+00  0.000000E+00  8.930064E+01  0.000000E+00  7.590458E+01  4.704359E+01
    1350.0000    1050.0000   -3625.0000   5.575781E-05  0.000000E+00  5.106073E-05  2.239944E-05  3.405084E-07  0.000000E+00  3.117869E-07  1.368755E-07  0.000000E+00  0.000000E+00  0.000000E+00  0.000000E+00  0.000000E+00  0.000000E+00  0.000000E+00  0.000000E+00  5.953652E+01  0.000000E+00  5.452135E+01  2.391695E+01
    1350.0000    1050.0000   -3375.0000   4.346263E-05  0.000000E+00  4.055946E-05  1.561829E-05  2.655907E-07  0.000000E+00  2.478321E-07  9.548658E-08  0.000000E+00  0.000000E+00  0.000000E+00  0.000000E+00  0.000000E+00  0.000000E+00  0.000000E+00  0.000000E+00  4.639606E+01  0.000000E+00  4.329422E+01  1.667947E+01
    1350.0000    1050.0000   -3125.0000   3.873834E-05  0.000000E+00  3.735519E-05  1.025908E-05  2.365831E-07  0.000000E+00  2.281458E-07  6.261816E-08  0.000000E+00  0.000000E+00  0.000000E+00  0.000000E+00  0.000000E+00  0.000000E+00  0.000000E+00  0.000000E+00  4.123144E+01  0.000000E+00  3.973972E+01  1.099028E+01
    1350.0000    1050.0000   -2875.0000   3.781529E-05  0.000000E+00  3.778379E-05  1.543213E-06  2.288971E-07  0.000000E+00  2.286943E-07  9.632310E-09  0.000000E+00  0.000000E+00  0.000000E+00  0.000000E+00  0.000000E+00  0.000000E+00  0.000000E+00  0.000000E+00  3.919369E+01  0.000000E+00  3.913803E+01  2.087994E+00
    1350.0000    1050.0000   -2625.0000   3.295672E-05  0.000000E+00  3.196370E-05 -8.029135E-06  1.938423E-07  0.000000E+00  1.880052E-07 -4.721093E-08  0.000000E+00  0.000000E+00  0.000000E+00  0.000000E+00  0.000000E+00  0.000000E+00  0.000000E+00  0.000000E+00  3.087117E+01  0.000000E+00  3.002492E+01 -7.178669E+00
    1350.0000    1050.0000   -2375.0000   2.297783E-05  0.000000E+00  1.986530E-05 -1.154774E-05  1.341710E-07  0.000000E+00  1.159102E-07 -6.757731E-08  0.000000E+00  0.000000E+00  0.000000E+00  0.000000E+00  0.000000E+00  0.000000E+00  0.000000E+00  0.000000E+00  2.079185E+01  0.000000E+00  1.785631E+01 -1.065143E+01
    1350.0000    1050.0000   -2125.0000   9.064429E-06  0.000000E+00  6.635734E-06 -6.175023E-06  5.317477E-08  0.000000E+00  3.896911E-08 -3.617961E-08  0.000000E+00  0.000000E+00  0.000000E+00  0.000000E+00  0.000000E+00  0.000000E+00  0.000000E+00  0.000000E+00  8.353497E+00  0.000000E+00  5.870394E+00 -5.943011E+00
    1350.0000    1050.0000   -1875.0000   5.736807E-06  0.000000E+00 -4.586581E-06  3.445899E-06  3.444332E-08  0.000000E+00 -2.746049E-08  2.079096E-08  0.000000E+00  0.000000E+00  0.000000E+00  0.000000E+00  0.000000E+00  0.000000E+00  0.000000E+00  0.000000E+00  5.828024E+00  0.000000E+00 -4.814830E+00  3.283791E+00
    1350.0000    1050.0000   -1625.0000   1.466025E-05  0.000000E+00 -1.076045E-05  9.956684E-06  8.847443E-08  0.000000E+00 -6.491242E-08  6.011740E-08  0.000000E+00  0.000000E+00  0.000000E+00  0.000000E+00  0.000000E+00  0.000000E+00  0.000000E+00  0.000000E+00  1.487203E+01  0.000000E+00 -1.106076E+01  9.941677E+00
    1350.0000    1050.0000   -1375.0000   1.741445E-05  0.000000E+00 -1.312698E-05  1.144314E-05  1.054690E-07  0.000000E+00 -7.949177E-08  6.931639E-08  0.000000E+00  0.000000E+00  0.000000E+00  0.000000E+00  0.000000E+00  0.000000E+00  0.000000E+00  0.000000E+00  1.785137E+01  0.000000E+00 -1.353867E+01  1.163511E+01
    1350.0000    1050.0000   -1125.0000   1.874323E-05  0.000000E+00 -1.791852E-05  5.498681E-06  1.132840E-07  0.000000E+00 -1.082663E-07  3.334202E-08  0.000000E+00  0.000000E+00  0.000000E+00  0.000000E+00  0.000000E+00  0.000000E+00  0.000000E+00  0.000000E+00  1.931071E+01  0.000000E+00 -1.842813E+01  5.771272E+00
    1350.0000    1050.0000    -875.0000   1.369214E-06  0.000000E+00 -1.129087E-06 -7.745380E-07  8.021367E-09  0.000000E+00 -6.624190E-09 -4.523542E-09  0.000000E+00  0.000000E+00  0.000000E+00  0.000000E+00  0.000000E+00  0.000000E+00  0.000000E+00  0.000000E+00  1.644314E+00  0.000000E+00 -1.589765E+00 -4.200189E-01
    1350.0000    1050.0000    -625.0000   2.255724E-06  0.000000E+00 -1.494171E-06 -1.689895E-06  1.294319E-08  0.000000E+00 -8.581498E-09 -9.689374E-09  0.000000E+00  0.000000E+00  0.000000E+00  0.000000E+00  0.000000E+00  0.000000E+00  0.000000E+00  0.000000E+00  2.392715E+00  0.000000E+00 -2.153165E+00 -1.043534E+00
    1350.0000    1050.0000    -375.0000   3.039798E-06  0.000000E+00 -2.318371E-06 -1.966095E-06  1.693254E-08  0.000000E+00 -1.294779E-08 -1.091172E-08  0.000000E+00  0.000000E+00  0.000000E+00  0.000000E+00  0.000000E+00  0.000000E+00  0.000000E+00  0.000000E+00  3.046058E+00  0.000000E+00 -2.999621E+00 -5.298488E-01
    1350.0000    1050.0000    -127.5000   2.034717E-06  0.000000E+00 -1.520181E-06 -1.352451E-06  9.751582E-09  0.000000E+00 -7.997621E-09 -5.579552E-09  0.000000E+00  0.000000E+00  0.000000E+00  0.000000E+00  0.000000E+00  0.000000E+00  0.000000E+00  0.000000E+00  2.229717E+00  0.000000E+00 -1.898901E+00  1.168680E+00
    1350.0000    1050.0000      -2.5000   3.981143E-07  0.000000E+00  0.000000E+00 -3.981143E-07  4.088763E-10  0.000000E+00  0.000000E+00 -4.088763E-10  0.000000E+00  0.000000E+00  0.000000E+00  0.000000E+00  0.000000E+00  0.000000E+00  0.000000E+00  0.000000E+00  1.120472E+00  0.000000E+00  0.000000E+00  1.120472E+00
    1350.0000    1125.0000   -4875.0000   2.998087E-05  0.000000E+00  0.000000E+00  2.998087E-05  3.544142E-06  0.000000E+00  0.000000E+00  3.544142E-06  0.000000E+00  0.000000E+00  0.000000E+00  0.000000E+00  0.000000E+00  0.000000E+00  0.000000E+00  0.000000E+00  3.201287E+01  0.000000E+00  0.000000E+00  3.201287E+01
    1350.0000    1125.0000   -4625.0000   6.010690E-05  0.000000E+00  1.598052E-07  6.010669E-05  7.139397E-06  0.000000E+00  1.902972E-08  7.139372E-06  0.000000E+00  0.000000E+00  0.000000E+00  0.000000E+00  0.000000E+00  0.000000E+00  0.000000E+00  0.000000E+00  6.418074E+01  0.000000E+00  1.706416E-01  6.418051E+01
    1350.0000    1125.0000   -4375.0000   6.064760E-05  0.000000E+00  4.892399E-07  6.064563E-05  7.272760E-06  0.000000E+00  5.881533E-08  7.272523E-06  0.000000E+00  0.000000E+00  0.000000E+00  0.000000E+00  0.000000E+00  0.000000E+00  0.000000E+00  0.000000E+00  6.475809E+01  0.000000E+00  5.224136E-01  6.475599E+01
    1350.0000    1125.0000   -4125.0000   6.170359E-05  0.000000E+00  1.665129E-06  6.168112E-05  7.469217E-06  0.000000E+00  2.021175E-07  7.466482E-06  0.000000E+00  0.000000E+00  0.000000E+00  0.000000E+00  0.000000E+00  0.000000E+00  0.000000E+00  0.000000E+00  6.588565E+01  0.000000E+00  1.778013E+00  6.586166E+01
    1350.0000    1125.0000   -3875.0000   9.169994E-05  0.000000E+00  8.206296E-05  4.092127E-05  3.881262E-06  0.000000E+00  5.007752E-07  3.848820E-06  0.000000E+00  0.000000E+00  0.000000E+00  0.000000E+00  0.000000E+00  0.000000E+00  0.000000E+00  0.000000E+00  9.791659E+01  0.000000E+00  8.762689E+01  4.369425E+01
    1350.0000    1125.0000   -3625.0000   5.591905E-05  0.000000E+00  5.329241E-05  1.693693E-05  3.415299E-07  0.000000E+00  3.254653E-07  1.035132E-07  0.000000E+00  0.000000E+00  0.000000E+00  0.000000E+00  0.000000E+00  0.000000E+00  0.000000E+00  0.000000E+00  5.970859E+01  0.000000E+00  5.690412E+01  1.808414E+01
    1350.0000    1125.0000   -3375.0000   4.360424E-05  0.000000E+00  4.146758E-05  1.348219E-05  2.664833E-07  0.000000E+00  2.534122E-07  8.243542E-08  0.000000E+00  0.000000E+00  0.000000E+00  0.000000E+00  0.000000E+00  0.000000E+00  0.000000E+00  0.000000E+00  4.654522E+01  0.000000E+00  4.426211E+01  1.439874E+01