Title="TOUGHREACT V3.85omp : Mineral Saturation Index (log[Q/K])"
Variables= "X(m)"   "Y(m)"   "Z(m)"       "T(C)"      "calcite"     "dolomite"
Zone T= "1.57788000E+10 sec" I=     231 J=       1 K=       1 F=Point SolutionTime= 1.57788000E+10
    1350.0000     250.0000   -4875.0000    244.375  7.033217E-05  1.840701E-04
    1350.0000     250.0000   -4625.0000    244.672 -1.981533E-03 -3.006290E-03
    1350.0000     250.0000   -4375.0000    244.948 -3.906919E-03 -5.995143E-03
    1350.0000     250.0000   -4125.0000    245.198 -5.461607E-03 -8.318343E-03
    1350.0000     250.0000   -3875.0000    245.373 -1.143796E-11  7.739925E-04
    1350.0000     250.0000   -3625.0000    245.484 -1.149214E-11  4.084001E-04
    1350.0000     250.0000   -3375.0000    245.538 -1.147704E-11  2.526057E-04
    1350.0000     250.0000   -3125.0000    245.060 -6.013057E-11 -2.542589E-06
    1350.0000     250.0000   -2875.0000    240.650 -2.674527E-11 -6.420013E-06
    1350.0000     250.0000   -2625.0000    219.022  1.069100E-11  1.282295E-03
    1350.0000     250.0000   -2375.0000    202.006  3.979306E-11  2.805289E-03
    1350.0000     250.0000   -2125.0000    198.271  3.209966E-11  2.028543E-03
    1350.0000     250.0000   -1875.0000    197.508  2.971712E-11  2.277371E-03
    1350.0000     250.0000   -1625.0000    197.052  2.769829E-11  3.368333E-03
    1350.0000     250.0000   -1375.0000    196.263  2.507594E-11  6.506071E-03
    1350.0000     250.0000   -1125.0000    187.674  1.551781E-11  3.310678E-02
    1350.0000     250.0000    -875.0000    132.291  1.068390E-11  1.443585E+00
    1350.0000     250.0000    -625.0000     94.862  2.210054E-11  1.291951E+00
    1350.0000     250.0000    -375.0000     63.922  4.221068E-12  1.124137E+00
    1350.0000     250.0000    -127.5000     37.691  1.604450E-11  9.404825E-01
    1350.0000     250.0000      -2.5000     25.113  5.875141E-01  2.001184E+00
    1350.0000     650.0000   -4875.0000    244.375  7.033217E-05  1.840701E-04
    1350.0000     650.0000   -4625.0000    244.673 -1.991536E-03 -3.022748E-03
    1350.0000     650.0000   -4375.0000    244.950 -3.928046E-03 -6.030196E-03
    1350.0000     650.0000   -4125.0000    245.202 -5.489396E-03 -8.362857E-03
    1350.0000     650.0000   -3875.0000    245.377 -5.830048E-11  7.788009E-04
    1350.0000     650.0000   -3625.0000    245.487 -5.843859E-11  4.002534E-04
    1350.0000     650.0000   -3375.0000    245.531 -5.816769E-11  2.331077E-04
    1350.0000     650.0000   -3125.0000    244.981 -5.456924E-11 -3.444251E-06
    1350.0000     650.0000   -2875.0000    240.250 -1.920863E-11 -7.089725E-06
    1350.0000     650.0000   -2625.0000    218.887  1.158185E-11  1.384348E-03
    1350.0000     650.0000   -2375.0000    205.649  4.894130E-11  2.501327E-03
    1350.0000     650.0000   -2125.0000    205.554  4.827516E-11  1.787353E-03
    1350.0000     650.0000   -1875.0000    210.519  6.016965E-11  1.470260E-03
    1350.0000     650.0000   -1625.0000    219.594  1.362288E-11 -7.513037E-06
    1350.0000     650.0000   -1375.0000    223.989  1.400569E-11 -1.081427E-05
    1350.0000     650.0000   -1125.0000    214.375  4.828671E-11  1.377970E-02
    1350.0000     650.0000    -875.0000    165.548  4.841150E-11  1.538609E+00
    1350.0000     650.0000    -625.0000    130.192  1.007638E-11  1.420188E+00
    1350.0000     650.0000    -375.0000     94.383  2.227019E-11  1.261769E+00
    1350.0000     650.0000    -127.5000     51.095  3.177814E-11  1.036361E+00
    1350.0000     650.0000      -2.5000     25.113  5.875141E-01  2.001184E+00
    1350.0000     900.0000   -4875.0000    244.375  7.033217E-05  1.840701E-04
    1350.0000     900.0000   -4625.0000    244.674 -2.001011E-03 -3.039000E-03
    1350.0000     900.0000   -4375.0000    244.952 -3.952108E-03 -6.072264E-03
    1350.0000     900.0000   -4125.0000    245.205 -5.525251E-03 -8.423652E-03
    1350.0000     900.0000   -3875.0000    245.381 -5.605516E-11  7.854070E-04
    1350.0000     900.0000   -3625.0000    245.489 -5.657785E-11  3.825492E-04
    1350.0000     900.0000   -3375.0000    245.521 -5.710366E-11  2.021358E-04
    1350.0000     900.0000   -3125.0000    244.864 -5.428813E-11 -4.695381E-06
    1350.0000     900.0000   -2875.0000    239.185 -3.484191E-11 -7.828925E-06
    1350.0000     900.0000   -2625.0000    217.818  1.171285E-11  1.704167E-03
    1350.0000     900.0000   -2375.0000    208.683  5.599077E-11  2.319563E-03
    1350.0000     900.0000   -2125.0000    211.410  6.320899E-11  1.850263E-03
    1350.0000     900.0000   -1875.0000    219.896  1.446621E-11  1.420231E-03
    1350.0000     900.0000   -1625.0000    230.159  1.465628E-11 -8.668136E-06
    1350.0000     900.0000   -1375.0000    232.879  1.215072E-11 -8.231816E-06
    1350.0000     900.0000   -1125.0000    228.839  4.721468E-11  7.337071E-03
    1350.0000     900.0000    -875.0000    196.207  2.596368E-11  1.568701E+00
    1350.0000     900.0000    -625.0000    169.581  6.276180E-11  1.424812E+00
    1350.0000     900.0000    -375.0000    136.296  1.521627E-11  1.204121E+00
    1350.0000     900.0000    -127.5000     76.846  9.896084E-12  1.082695E+00
    1350.0000     900.0000      -2.5000     25.113  5.875141E-01  2.001184E+00
    1350.0000    1050.0000   -4875.0000    244.375  7.033217E-05  1.840701E-04
    1350.0000    1050.0000   -4625.0000    244.675 -2.006602E-03 -3.048941E-03
    1350.0000    1050.0000   -4375.0000    244.953 -3.970733E-03 -6.106391E-03
    1350.0000    1050.0000   -4125.0000    245.208 -5.560800E-03 -8.487587E-03
    1350.0000    1050.0000   -3875.0000    245.385 -6.012701E-11  7.933205E-04
    1350.0000    1050.0000   -3625.0000    245.490 -6.158096E-11  3.585576E-04
    1350.0000    1050.0000   -3375.0000    245.513 -1.161116E-11  1.752951E-04
    1350.0000    1050.0000   -3125.0000    244.791 -1.155787E-11 -5.335863E-06
    1350.0000    1050.0000   -2875.0000    238.392 -3.963496E-11 -7.413500E-06
    1350.0000    1050.0000   -2625.0000    217.841  1.140599E-11  2.077780E-03
    1350.0000    1050.0000   -2375.0000    211.628  6.067857E-11  2.784563E-03
    1350.0000    1050.0000   -2125.0000    217.007  1.184741E-11  2.674112E-03
    1350.0000    1050.0000   -1875.0000    229.391  1.250733E-11 -6.886641E-06
    1350.0000    1050.0000   -1625.0000    234.402  4.973266E-11 -4.421990E-06
    1350.0000    1050.0000   -1375.0000    236.408 -1.715961E-12 -3.706125E-06
    1350.0000    1050.0000   -1125.0000    235.300 -1.294254E-11  2.848658E-03
    1350.0000    1050.0000    -875.0000    217.121  1.080469E-11  1.425328E+00
    1350.0000    1050.0000    -625.0000    201.319  3.623501E-11  1.166794E+00
    1350.0000    1050.0000    -375.0000    176.932  1.081668E-11  7.777008E-01
    1350.0000    1050.0000    -127.5000    111.197  5.182077E-12  7.484025E-01
    1350.0000    1050.0000      -2.5000     25.113  5.875141E-01  2.001184E+00
    1350.0000    1125.0000   -4875.0000    244.375  7.033217E-05  1.840701E-04
    1350.0000    1125.0000   -4625.0000    244.675 -2.008755E-03 -3.052838E-03
    1350.0000    1125.0000   -4375.0000    244.954 -3.979983E-03 -6.123815E-03
    1350.0000    1125.0000   -4125.0000    245.209 -5.585010E-03 -8.533072E-03
    1350.0000    1125.0000   -3875.0000    245.387 -1.190781E-11  7.991741E-04
    1350.0000    1125.0000   -3625.0000    245.491 -1.235145E-11  3.383534E-04
    1350.0000    1125.0000   -3375.0000    245.510 -1.310063E-11  1.633460E-04
    1350.0000    1125.0000   -3125.0000    244.780 -1.335287E-11 -5.063102E-06
    1350.0000    1125.0000   -2875.0000    238.283 -1.122391E-11  2.576610E-04
    1350.0000    1125.0000   -2625.0000    218.943  1.165201E-11  3.052764E-03
    1350.0000    1125.0000   -2375.0000    215.170  1.052713E-11  3.996411E-03
    1350.0000    1125.0000   -2125.0000    223.281  1.559730E-11  2.705891E-03
    1350.0000    1125.0000   -1875.0000    233.239  1.044942E-11 -3.580380E-06
    1350.0000    1125.0000   -1625.0000    236.484  2.073008E-11 -1.785724E-06
    1350.0000    1125.0000   -1375.0000    237.859 -2.348877E-11  1.143689E-06
    1350.0000    1125.0000   -1125.0000    237.516 -4.818546E-11  1.674327E-05
    1350.0000    1125.0000    -875.0000    227.302  1.130696E-11  1.030738E+00
    1350.0000    1125.0000    -625.0000    218.094  4.200107E-11  7.458810E-01
    1350.0000    1125.0000    -375.0000    201.738  1.379963E-11  2.386385E-01
    1350.0000    1125.0000    -127.5000    137.728  1.118883E-11  2.642522E-01
    1350.0000    1125.0000      -2.5000     25.113  5.875141E-01  2.001184E+00
    1350.0000    1165.0000   -4875.0000    244.375  7.033217E-05  1.840701E-04
    1350.0000    1165.0000   -4625.0000    244.675 -2.009608E-03 -3.054392E-03
    1350.0000    1165.0000   -4375.0000    244.954 -3.984434E-03 -6.132347E-03
    1350.0000    1165.0000   -4125.0000    245.209 -5.600684E-03 -8.563359E-03
    1350.0000    1165.0000   -3875.0000    245.388 -1.270539E-11  8.030030E-04
    1350.0000    1165.0000   -3625.0000    245.492 -1.323164E-11  3.229140E-04
    1350.0000    1165.0000   -3375.0000    245.514 -1.413136E-11  1.690855E-04
    1350.0000    1165.0000   -3125.0000    244.830 -1.459632E-11  7.177757E-05
    1350.0000    1165.0000   -2875.0000    238.742 -1.569811E-11  1.085659E-03
    1350.0000    1165.0000   -2625.0000    221.313  1.283951E-11  4.675046E-03
    1350.0000    1165.0000   -2375.0000    219.543  1.286882E-11  5.190061E-03
    1350.0000    1165.0000   -2125.0000    228.273  1.941469E-11  2.116546E-03
    1350.0000    1165.0000   -1875.0000    235.232  5.072209E-11  1.827390E-04
    1350.0000    1165.0000   -1625.0000    237.511 -2.075229E-12  1.501129E-05
    1350.0000    1165.0000   -1375.0000    238.520 -3.928324E-11  1.439040E-05
    1350.0000    1165.0000   -1125.0000    238.465 -6.039169E-11  1.051166E-05
    1350.0000    1165.0000    -875.0000    232.493 -2.074962E-11  6.783746E-01
    1350.0000    1165.0000    -625.0000    226.911 -1.532952E-11  3.835532E-01
    1350.0000    1165.0000    -375.0000    215.728 -2.196510E-11  1.594696E-02
    1350.0000    1165.0000    -127.5000    155.244 -6.200684E-11  4.885545E-02
    1350.0000    1165.0000      -2.5000     25.113  5.875141E-01  2.001184E+00
    1350.0000    1190.0000   -4875.0000    244.375  7.033217E-05  1.840701E-04
    1350.0000    1190.0000   -4625.0000    244.675 -2.010000E-03 -3.055111E-03
    1350.0000    1190.0000   -4375.0000    244.954 -3.986833E-03 -6.137044E-03
    1350.0000    1190.0000   -4125.0000    245.209 -5.611582E-03 -8.584864E-03
    1350.0000    1190.0000   -3875.0000    245.389 -1.329603E-11  8.056589E-04
    1350.0000    1190.0000   -3625.0000    245.492 -1.386935E-11  3.118042E-04
    1350.0000    1190.0000   -3375.0000    245.525 -1.487344E-11  1.953056E-04
    1350.0000    1190.0000   -3125.0000    244.952 -1.555511E-11  3.535105E-04
    1350.0000    1190.0000   -2875.0000    239.752 -2.163603E-11  2.120193E-03
    1350.0000    1190.0000   -2625.0000    225.227  1.536815E-11  6.442619E-03
    1350.0000    1190.0000   -2375.0000    224.619  1.641354E-11  5.829391E-03
    1350.0000    1190.0000   -2125.0000    231.905  2.256195E-11  1.721023E-03
    1350.0000    1190.0000   -1875.0000    236.459  3.408385E-11  6.370139E-04
    1350.0000    1190.0000   -1625.0000    238.097 -1.407052E-11  5.719080E-04
    1350.0000    1190.0000   -1375.0000    238.882 -4.588951E-11  4.710342E-04
    1350.0000    1190.0000   -1125.0000    238.987 -1.434541E-11  2.482081E-05
    1350.0000    1190.0000    -875.0000    235.654 -4.524248E-11  3.781570E-01
    1350.0000    1190.0000    -625.0000    232.306 -1.314771E-11  1.566645E-01
    1350.0000    1190.0000    -375.0000    224.574 -5.382894E-11 -2.049334E-02
    1350.0000    1190.0000    -127.5000    167.647 -3.986900E-11  1.526419E-02
    1350.0000    1190.0000      -2.5000     25.113  5.875141E-01  2.001184E+00
    1350.0000    1205.0000   -4875.0000    244.375  7.033217E-05  1.840701E-04
    1350.0000    1205.0000   -4625.0000    244.675 -2.010173E-03 -3.055428E-03
    1350.0000    1205.0000   -4375.0000    244.954 -3.988038E-03 -6.139617E-03
    1350.0000    1205.0000   -4125.0000    245.209 -5.618175E-03 -8.598310E-03
    1350.0000    1205.0000   -3875.0000    245.389 -1.368550E-11  8.071081E-04
    1350.0000    1205.0000   -3625.0000    245.494 -1.428724E-11  3.074111E-04
    1350.0000    1205.0000   -3375.0000    245.541 -1.536060E-11  2.389204E-04
    1350.0000    1205.0000   -3125.0000    245.126 -1.627942E-11  7.437220E-04
    1350.0000    1205.0000   -2875.0000    241.146 -2.753708E-11  3.446783E-03
    1350.0000    1205.0000   -2625.0000    230.097  1.915090E-11  8.339461E-03
    1350.0000    1205.0000   -2375.0000    229.336  2.051426E-11  6.529742E-03
    1350.0000    1205.0000   -2125.0000    234.249  2.312905E-11  1.664328E-03
    1350.0000    1205.0000   -1875.0000    237.182  2.150458E-11  1.359544E-03
    1350.0000    1205.0000   -1625.0000    238.425 -2.052358E-11  1.281266E-03
    1350.0000    1205.0000   -1375.0000    239.082 -4.811795E-11  1.014343E-03
    1350.0000    1205.0000   -1125.0000    239.280 -1.422329E-11  4.556684E-04
    1350.0000    1205.0000    -875.0000    237.527 -5.515677E-11  1.533880E-01
    1350.0000    1205.0000    -625.0000    235.497 -5.359402E-11  4.215738E-02
    1350.0000    1205.0000    -375.0000    229.918 -3.049472E-11 -2.025756E-02
    1350.0000    1205.0000    -127.5000    175.784  9.475976E-12  2.112901E-02
    1350.0000    1205.0000      -2.5000     25.113  5.875141E-01  2.001184E+00
    1350.0000    1215.0000   -4875.0000    244.375  7.033217E-05  1.840701E-04
    1350.0000    1215.0000   -4625.0000    244.675 -2.010268E-03 -3.055602E-03
    1350.0000    1215.0000   -4375.0000    244.954 -3.988811E-03 -6.141027E-03
    1350.0000    1215.0000   -4125.0000    245.209 -5.646362E-03 -8.654912E-03
    1350.0000    1215.0000   -3875.0000    245.389 -1.384182E-11  8.082687E-04
    1350.0000    1215.0000   -3625.0000    245.495 -1.445599E-11  5.591438E-04
    1350.0000    1215.0000   -3375.0000    245.562 -1.557909E-11  5.070166E-04
    1350.0000    1215.0000   -3125.0000    245.344 -1.688605E-11  5.230885E-04
    1350.0000    1215.0000   -2875.0000    242.934 -6.137979E-11  3.283068E-04
    1350.0000    1215.0000   -2625.0000    235.805  3.979128E-11 -8.596655E-06
    1350.0000    1215.0000   -2375.0000    233.749  1.032641E-11  1.414161E-03
    1350.0000    1215.0000   -2125.0000    235.955  3.921485E-11  3.291730E-03
    1350.0000    1215.0000   -1875.0000    237.661 -2.706013E-11  3.442272E-03
    1350.0000    1215.0000   -1625.0000    238.636 -2.202594E-11  2.726359E-03
    1350.0000    1215.0000   -1375.0000    239.209 -4.869749E-11  1.937357E-03
    1350.0000    1215.0000   -1125.0000    239.475 -1.432365E-11  1.140254E-03
    1350.0000    1215.0000    -875.0000    238.844 -5.784973E-11  1.649416E-04
    1350.0000    1215.0000    -625.0000    237.730 -4.483347E-11 -2.938850E-03
    1350.0000    1215.0000    -375.0000    233.768 -2.952483E-11 -1.355428E-02
    1350.0000    1215.0000    -127.5000    177.858  2.906608E-11  4.884435E-02
    1350.0000    1215.0000      -2.5000     25.113  5.875141E-01  2.001184E+00
    1350.0000    1230.0000   -4875.0000    244.375  7.033217E-05  1.840701E-04
    1350.0000    1230.0000   -4625.0000    244.675 -2.010374E-03 -3.055796E-03
    1350.0000    1230.0000   -4375.0000    244.954 -3.989651E-03 -6.142533E-03
    1350.0000    1230.0000   -4125.0000    245.209 -5.655821E-03 -8.673624E-03
    1350.0000    1230.0000   -3875.0000    245.389 -1.385869E-11  8.099664E-04
    1350.0000    1230.0000   -3625.0000    245.497 -1.447775E-11  7.755551E-04
    1350.0000    1230.0000   -3375.0000    245.584 -1.562039E-11  8.035044E-04
    1350.0000    1230.0000   -3125.0000    245.546 -1.720490E-11  7.375009E-04
    1350.0000    1230.0000   -2875.0000    244.560 -1.684253E-11 -5.489525E-06
    1350.0000    1230.0000   -2625.0000    241.762 -5.397727E-11 -3.350402E-05
    1350.0000    1230.0000   -2375.0000    240.377 -5.503242E-11 -3.576941E-05
    1350.0000    1230.0000   -2125.0000    239.990 -1.421796E-11 -2.307369E-05
    1350.0000    1230.0000   -1875.0000    239.915 -1.769251E-11 -1.090728E-05
    1350.0000    1230.0000   -1625.0000    239.942 -2.142109E-11  2.560481E-07
    1350.0000    1230.0000   -1375.0000    239.996 -2.477218E-11  1.229017E-05
    1350.0000    1230.0000   -1125.0000    240.031 -2.670264E-11  2.378273E-05
    1350.0000    1230.0000    -875.0000    239.879 -2.569145E-11 -5.135943E-04
    1350.0000    1230.0000    -625.0000    239.537 -2.225597E-11 -1.502022E-03
    1350.0000    1230.0000    -375.0000    234.975 -1.731593E-11 -1.374762E-02
    1350.0000    1230.0000    -127.5000    177.972  3.670575E-11  3.117415E-02
    1350.0000    1230.0000      -2.5000     25.113  5.875141E-01  2.001184E+00
    1350.0000    1245.0000   -4875.0000    244.375  7.033217E-05  1.840701E-04
    1350.0000    1245.0000   -4625.0000    244.675 -2.010409E-03 -3.055862E-03
    1350.0000    1245.0000   -4375.0000    244.954 -3.989944E-03 -6.142976E-03
    1350.0000    1245.0000   -4125.0000    245.209 -5.657029E-03 -8.675760E-03
    1350.0000    1245.0000   -3875.0000    245.389 -1.385292E-11  8.113673E-04
    1350.0000    1245.0000   -3625.0000    245.497 -1.447020E-11  8.510374E-04
    1350.0000    1245.0000   -3375.0000    245.591 -1.561506E-11  9.151463E-04
    1350.0000    1245.0000   -3125.0000    245.611 -1.727329E-11  8.617347E-04
    1350.0000    1245.0000   -2875.0000    245.112 -1.853540E-11 -6.030878E-06
    1350.0000    1245.0000   -2625.0000    243.706 -1.823208E-11 -3.247826E-05
    1350.0000    1245.0000   -2375.0000    242.681 -1.992184E-11 -3.592224E-05
    1350.0000    1245.0000   -2125.0000    241.919 -2.247225E-11 -3.222928E-05
    1350.0000    1245.0000   -1875.0000    241.340 -2.541256E-11 -2.600002E-05
    1350.0000    1245.0000   -1625.0000    240.927 -2.851319E-11 -1.843418E-05
    1350.0000    1245.0000   -1375.0000    240.650 -3.125855E-11 -9.173302E-06
    1350.0000    1245.0000   -1125.0000    240.467 -3.279110E-11  5.708915E-06
    1350.0000    1245.0000    -875.0000    240.286 -3.172396E-11 -5.517639E-04
    1350.0000    1245.0000    -625.0000    240.044 -2.819700E-11 -1.241706E-03
    1350.0000    1245.0000    -375.0000    235.040 -3.315037E-11 -1.469307E-02
    1350.0000    1245.0000    -127.5000    177.570  3.513456E-11  3.042001E-02
    1350.0000    1245.0000      -2.5000     25.113  5.875141E-01  2.001184E+00
Zone T= "3.15576000E+10 sec" I=     231 J=       1 K=       1 F=Point SolutionTime= 3.15576000E+10
    1350.0000     250.0000   -4875.0000    244.375  7.033217E-05  1.840701E-04
    1350.0000     250.0000   -4625.0000    244.672 -1.989923E-03 -3.029100E-03
    1350.0000     250.0000   -4375.0000    244.948 -3.915657E-03 -6.018669E-03
    1350.0000     250.0000   -4125.0000    245.198 -5.470730E-03 -8.342654E-03
    1350.0000     250.0000   -3875.0000    245.373 -1.204281E-11  7.724100E-04
    1350.0000     250.0000   -3625.0000    245.484 -1.215916E-11  4.076962E-04
    1350.0000     250.0000   -3375.0000    245.538 -1.224887E-11  2.525560E-04
    1350.0000     250.0000   -3125.0000    245.063 -1.191758E-11 -2.530275E-06
    1350.0000     250.0000   -2875.0000    240.657 -4.815925E-11 -6.188662E-06
    1350.0000     250.0000   -2625.0000    219.038  4.161027E-11  1.270026E-03
    1350.0000     250.0000   -2375.0000    202.006  2.721912E-11  2.797425E-03
    1350.0000     250.0000   -2125.0000    198.265  2.101075E-11  2.020571E-03
    1350.0000     250.0000   -1875.0000    197.501  1.943956E-11  2.261094E-03
    1350.0000     250.0000   -1625.0000    197.045  1.848122E-11  3.329809E-03
    1350.0000     250.0000   -1375.0000    196.257  1.731548E-11  6.366807E-03
    1350.0000     250.0000   -1125.0000    187.670  1.173461E-11  3.187043E-02
    1350.0000     250.0000    -875.0000    132.288  1.053380E-11  1.428372E+00
    1350.0000     250.0000    -625.0000     94.862  2.222755E-11  1.275132E+00
    1350.0000     250.0000    -375.0000     63.922  4.250378E-12  1.114027E+00
    1350.0000     250.0000    -127.5000     37.691  1.604938E-11  9.401480E-01
    1350.0000     250.0000      -2.5000     25.113  5.875141E-01  2.001184E+00
    1350.0000     650.0000   -4875.0000    244.375  7.033217E-05  1.840701E-04
    1350.0000     650.0000   -4625.0000    244.673 -1.999852E-03 -3.045409E-03
    1350.0000     650.0000   -4375.0000    244.950 -3.936534E-03 -6.053212E-03
    1350.0000     650.0000   -4125.0000    245.202 -5.497859E-03 -8.385820E-03
    1350.0000     650.0000   -3875.0000    245.377 -1.254730E-11  7.777994E-04
    1350.0000     650.0000   -3625.0000    245.487 -1.267875E-11  4.002082E-04
    1350.0000     650.0000   -3375.0000    245.532 -1.277822E-11  2.338969E-04
    1350.0000     650.0000   -3125.0000    244.985 -1.239142E-11 -2.356805E-06
    1350.0000     650.0000   -2875.0000    240.259 -4.887735E-11 -6.002060E-06
    1350.0000     650.0000   -2625.0000    218.905  4.452216E-11  1.377113E-03
    1350.0000     650.0000   -2375.0000    205.650  3.323564E-11  2.496864E-03
    1350.0000     650.0000   -2125.0000    205.549  3.090861E-11  1.781477E-03
    1350.0000     650.0000   -1875.0000    210.513  3.694733E-11  1.462623E-03
    1350.0000     650.0000   -1625.0000    219.589  4.913581E-11 -5.616100E-06
    1350.0000     650.0000   -1375.0000    223.989  4.668799E-11 -8.430376E-06
    1350.0000     650.0000   -1125.0000    214.376  3.350609E-11  1.301201E-02
    1350.0000     650.0000    -875.0000    165.547  4.936940E-11  1.412504E+00
    1350.0000     650.0000    -625.0000    130.192  1.074030E-11  1.246535E+00
    1350.0000     650.0000    -375.0000     94.383  2.476375E-11  1.101031E+00
    1350.0000     650.0000    -127.5000     51.095  3.302780E-11  1.002835E+00
    1350.0000     650.0000      -2.5000     25.113  5.875141E-01  2.001184E+00
    1350.0000     900.0000   -4875.0000    244.375  7.033217E-05  1.840701E-04
    1350.0000     900.0000   -4625.0000    244.674 -2.009207E-03 -3.061415E-03
    1350.0000     900.0000   -4375.0000    244.952 -3.960169E-03 -6.094407E-03
    1350.0000     900.0000   -4125.0000    245.205 -5.532493E-03 -8.444118E-03
    1350.0000     900.0000   -3875.0000    245.382 -1.293188E-11  7.856174E-04
    1350.0000     900.0000   -3625.0000    245.489 -1.306155E-11  3.838410E-04
    1350.0000     900.0000   -3375.0000    245.522 -1.314415E-11  2.045322E-04
    1350.0000     900.0000   -3125.0000    244.868 -1.263567E-11 -2.303049E-06
    1350.0000     900.0000   -2875.0000    239.198 -4.034417E-11 -5.432859E-06
    1350.0000     900.0000   -2625.0000    217.834  4.764011E-11  1.703139E-03
    1350.0000     900.0000   -2375.0000    208.683  3.945111E-11  2.317567E-03
    1350.0000     900.0000   -2125.0000    211.405  4.376810E-11  1.846668E-03
    1350.0000     900.0000   -1875.0000    219.888  1.039258E-11  1.422036E-03
    1350.0000     900.0000   -1625.0000    230.161  6.178968E-11 -5.425971E-06
    1350.0000     900.0000   -1375.0000    232.883  5.540191E-11 -4.295267E-06
    1350.0000     900.0000   -1125.0000    228.843  4.432987E-11  6.490155E-03
    1350.0000     900.0000    -875.0000    196.207  2.575451E-11  1.225751E+00
    1350.0000     900.0000    -625.0000    169.582  5.804379E-11  9.605987E-01
    1350.0000     900.0000    -375.0000    136.293  1.319433E-11  7.699019E-01
    1350.0000     900.0000    -127.5000     76.844  1.128919E-11  7.956670E-01
    1350.0000     900.0000      -2.5000     25.113  5.875141E-01  2.001184E+00
    1350.0000    1050.0000   -4875.0000    244.375  7.033217E-05  1.840701E-04
    1350.0000    1050.0000   -4625.0000    244.675 -2.014723E-03 -3.071204E-03
    1350.0000    1050.0000   -4375.0000    244.953 -3.978497E-03 -6.127926E-03
    1350.0000    1050.0000   -4125.0000    245.208 -5.567001E-03 -8.505921E-03
    1350.0000    1050.0000   -3875.0000    245.385 -1.310996E-11  7.948227E-04
    1350.0000    1050.0000   -3625.0000    245.491 -1.323208E-11  3.612480E-04
    1350.0000    1050.0000   -3375.0000    245.515 -1.328893E-11  1.792736E-04
    1350.0000    1050.0000   -3125.0000    244.796 -1.269074E-11 -2.172643E-06
    1350.0000    1050.0000   -2875.0000    238.408 -3.182610E-11 -3.817781E-06
    1350.0000    1050.0000   -2625.0000    217.855  5.019851E-11  2.077466E-03
    1350.0000    1050.0000   -2375.0000    211.628  4.626610E-11  2.782512E-03
    1350.0000    1050.0000   -2125.0000    217.001  5.971490E-11  2.673136E-03
    1350.0000    1050.0000   -1875.0000    229.391  1.212008E-11 -6.548158E-06
    1350.0000    1050.0000   -1625.0000    234.406  1.090328E-11  1.793361E-06
    1350.0000    1050.0000   -1375.0000    236.412  4.952394E-11  2.371878E-06
    1350.0000    1050.0000   -1125.0000    235.306  3.870548E-11  2.027084E-03
    1350.0000    1050.0000    -875.0000    217.123  5.499246E-11  9.111144E-01
    1350.0000    1050.0000    -625.0000    201.320  2.245626E-11  5.211071E-01
    1350.0000    1050.0000    -375.0000    176.927  4.582601E-11  2.558049E-01
    1350.0000    1050.0000    -127.5000    111.199  4.457101E-11  3.215693E-01
    1350.0000    1050.0000      -2.5000     25.113  5.875141E-01  2.001184E+00
    1350.0000    1125.0000   -4875.0000    244.375  7.033217E-05  1.840701E-04
    1350.0000    1125.0000   -4625.0000    244.675 -2.016850E-03 -3.075046E-03
    1350.0000    1125.0000   -4375.0000    244.954 -3.987632E-03 -6.145115E-03
    1350.0000    1125.0000   -4125.0000    245.209 -5.590737E-03 -8.550435E-03
    1350.0000    1125.0000   -3875.0000    245.388 -1.317435E-11  8.014539E-04
    1350.0000    1125.0000   -3625.0000    245.492 -1.328715E-11  3.418698E-04
    1350.0000    1125.0000   -3375.0000    245.513 -1.332623E-11  1.681565E-04
    1350.0000    1125.0000   -3125.0000    244.785 -1.270184E-11 -1.314892E-06
    1350.0000    1125.0000   -2875.0000    238.300 -2.839817E-11  2.507837E-04
    1350.0000    1125.0000   -2625.0000    218.956  5.399148E-11  3.047573E-03
    1350.0000    1125.0000   -2375.0000    215.169  5.551604E-11  3.988373E-03
    1350.0000    1125.0000   -2125.0000    223.276  1.380052E-11  2.704229E-03
    1350.0000    1125.0000   -1875.0000    233.241  1.329781E-11 -1.978023E-06
    1350.0000    1125.0000   -1625.0000    236.488  5.490097E-11  4.016921E-06
    1350.0000    1125.0000   -1375.0000    237.864  4.077449E-11  7.736388E-06
    1350.0000    1125.0000   -1125.0000    237.521  3.416911E-11  4.365778E-06
    1350.0000    1125.0000    -875.0000    227.307  5.617773E-11  4.927535E-01
    1350.0000    1125.0000    -625.0000    218.099  2.939027E-11  1.591776E-01
    1350.0000    1125.0000    -375.0000    201.738  1.217604E-11 -3.081484E-02
    1350.0000    1125.0000    -127.5000    137.738  7.877254E-12  3.604965E-02
    1350.0000    1125.0000      -2.5000     25.113  5.875141E-01  2.001184E+00
    1350.0000    1165.0000   -4875.0000    244.375  7.033217E-05  1.840701E-04
    1350.0000    1165.0000   -4625.0000    244.675 -2.017692E-03 -3.076580E-03
    1350.0000    1165.0000   -4375.0000    244.954 -3.992038E-03 -6.153556E-03
    1350.0000    1165.0000   -4125.0000    245.209 -5.606205E-03 -8.580301E-03
    1350.0000    1165.0000   -3875.0000    245.389 -1.320100E-11  8.057217E-04
    1350.0000    1165.0000   -3625.0000    245.493 -1.330580E-11  3.268687E-04
    1350.0000    1165.0000   -3375.0000    245.516 -1.334222E-11  1.741438E-04
    1350.0000    1165.0000   -3125.0000    244.835 -1.274403E-11  7.612061E-05
    1350.0000    1165.0000   -2875.0000    238.758 -2.837464E-11  1.079386E-03
    1350.0000    1165.0000   -2625.0000    221.324  6.077450E-11  4.653539E-03
    1350.0000    1165.0000   -2375.0000    219.540  1.097966E-11  5.165973E-03
    1350.0000    1165.0000   -2125.0000    228.270  1.878364E-11  2.115432E-03
    1350.0000    1165.0000   -1875.0000    235.234  1.281597E-11  1.896202E-04
    1350.0000    1165.0000   -1625.0000    237.515  4.700684E-11  2.158412E-05
    1350.0000    1165.0000   -1375.0000    238.525  3.545875E-11  2.226318E-05
    1350.0000    1165.0000   -1125.0000    238.470  3.179723E-11  1.089992E-05
    1350.0000    1165.0000    -875.0000    232.500  4.924283E-11  2.398955E-01
    1350.0000    1165.0000    -625.0000    226.917  3.153566E-11  4.111598E-02
    1350.0000    1165.0000    -375.0000    215.728  1.879030E-11 -4.841025E-02
    1350.0000    1165.0000    -127.5000    155.258  1.514211E-11 -5.770095E-03
    1350.0000    1165.0000      -2.5000     25.113  5.875141E-01  2.001184E+00
    1350.0000    1190.0000   -4875.0000    244.375  7.033217E-05  1.840701E-04
    1350.0000    1190.0000   -4625.0000    244.675 -2.018080E-03 -3.077290E-03
    1350.0000    1190.0000   -4375.0000    244.954 -3.994417E-03 -6.158212E-03
    1350.0000    1190.0000   -4125.0000    245.209 -5.617002E-03 -8.601599E-03
    1350.0000    1190.0000   -3875.0000    245.390 -1.321165E-11  8.086573E-04
    1350.0000    1190.0000   -3625.0000    245.494 -1.331557E-11  3.159777E-04
    1350.0000    1190.0000   -3375.0000    245.527 -1.335421E-11  2.001735E-04
    1350.0000    1190.0000   -3125.0000    244.957 -1.285061E-11  3.572438E-04
    1350.0000    1190.0000   -2875.0000    239.766 -3.088596E-11  2.113153E-03
    1350.0000    1190.0000   -2625.0000    225.237  1.201261E-11  6.372852E-03
    1350.0000    1190.0000   -2375.0000    224.618  1.447464E-11  5.779252E-03
    1350.0000    1190.0000   -2125.0000    231.904  2.346434E-11  1.719996E-03
    1350.0000    1190.0000   -1875.0000    236.462  1.131584E-11  6.411845E-04
    1350.0000    1190.0000   -1625.0000    238.101  4.117817E-11  5.748522E-04
    1350.0000    1190.0000   -1375.0000    238.887  3.250156E-11  4.740420E-04
    1350.0000    1190.0000   -1125.0000    238.991  3.026468E-11  3.070686E-05
    1350.0000    1190.0000    -875.0000    235.659  4.227019E-11  1.021380E-01
    1350.0000    1190.0000    -625.0000    232.310  3.226752E-11  5.920947E-03