Title="TOUGHREACT V3.85omp : Aqueous Total & Species Concentrations in mol/kg H2O, Surface & Exchanged Species in mol/kg H2O, Dry blocks in mol/L medium"
Variables= "X(m)"   "Y(m)"   "Z(m)"   "P(bar)"     "T(C)"   "SatGas"   "SatLiq"     "aH2O"       "pH"   "IonStr"    "EC(uS_cm)"        "t_na+"        "t_cl-"      "t_hco3-"       "t_ca+2"      "t_so4-2"       "t_mg+2"         "t_k+"        "t_br-"
Zone T= "0.00000000E+00 sec" I=     231 J=       1 K=       1 F=Point SolutionTime= 0.00000000E+00
    1350.0000     250.0000   -4875.0000  4.78042E+02  244.375  0.00000E+00  1.00000E+00  0.98475  6.4862  6.0011E-01  0.0000E+00  4.8540E-01  5.6570E-01  5.8630E-04  5.8620E-02  2.9260E-02  5.2880E-03  1.0580E-02  1.0000E-04
    1350.0000     250.0000   -4625.0000  4.36602E+02  244.672  0.00000E+00  1.00000E+00  0.98475  6.4862  6.0011E-01  0.0000E+00  4.8540E-01  5.6570E-01  5.8630E-04  5.8620E-02  2.9260E-02  5.2880E-03  1.0580E-02  1.0000E-04
    1350.0000     250.0000   -4375.0000  3.95411E+02  244.948  0.00000E+00  1.00000E+00  0.98475  6.4862  6.0011E-01  0.0000E+00  4.8540E-01  5.6570E-01  5.8630E-04  5.8620E-02  2.9260E-02  5.2880E-03  1.0580E-02  1.0000E-04
    1350.0000     250.0000   -4125.0000  3.54527E+02  245.198  0.00000E+00  1.00000E+00  0.98475  6.4862  6.0011E-01  0.0000E+00  4.8540E-01  5.6570E-01  5.8630E-04  5.8620E-02  2.9260E-02  5.2880E-03  1.0580E-02  1.0000E-04
    1350.0000     250.0000   -3875.0000  3.23533E+02  245.373  0.00000E+00  1.00000E+00  0.98078  8.0979  6.5584E-01  0.0000E+00  4.8540E-01  5.6570E-01  2.4060E-03  1.0660E-02  2.9260E-02  5.5070E-02  1.0580E-02  1.0000E-07
    1350.0000     250.0000   -3625.0000  3.02340E+02  245.484  0.00000E+00  1.00000E+00  0.98078  8.0979  6.5584E-01  0.0000E+00  4.8540E-01  5.6570E-01  2.4060E-03  1.0660E-02  2.9260E-02  5.5070E-02  1.0580E-02  1.0000E-07
    1350.0000     250.0000   -3375.0000  2.81404E+02  245.538  0.00000E+00  1.00000E+00  0.98078  8.0979  6.5584E-01  0.0000E+00  4.8540E-01  5.6570E-01  2.4060E-03  1.0660E-02  2.9260E-02  5.5070E-02  1.0580E-02  1.0000E-07
    1350.0000     250.0000   -3125.0000  2.60694E+02  245.062  0.00000E+00  1.00000E+00  0.98078  8.0979  6.5584E-01  0.0000E+00  4.8540E-01  5.6570E-01  2.4060E-03  1.0660E-02  2.9260E-02  5.5070E-02  1.0580E-02  1.0000E-07
    1350.0000     250.0000   -2875.0000  2.40122E+02  240.648  0.00000E+00  1.00000E+00  0.98078  8.0979  6.5584E-01  0.0000E+00  4.8540E-01  5.6570E-01  2.4060E-03  1.0660E-02  2.9260E-02  5.5070E-02  1.0580E-02  1.0000E-07
    1350.0000     250.0000   -2625.0000  2.19353E+02  218.992  0.00000E+00  1.00000E+00  0.98078  8.0979  6.5584E-01  0.0000E+00  4.8540E-01  5.6570E-01  2.4060E-03  1.0660E-02  2.9260E-02  5.5070E-02  1.0580E-02  1.0000E-07
    1350.0000     250.0000   -2375.0000  1.98213E+02  202.000  0.00000E+00  1.00000E+00  0.98078  8.0979  6.5584E-01  0.0000E+00  4.8540E-01  5.6570E-01  2.4060E-03  1.0660E-02  2.9260E-02  5.5070E-02  1.0580E-02  1.0000E-07
    1350.0000     250.0000   -2125.0000  1.76964E+02  198.272  0.00000E+00  1.00000E+00  0.98078  8.0979  6.5584E-01  0.0000E+00  4.8540E-01  5.6570E-01  2.4060E-03  1.0660E-02  2.9260E-02  5.5070E-02  1.0580E-02  1.0000E-07
    1350.0000     250.0000   -1875.0000  1.55802E+02  197.512  0.00000E+00  1.00000E+00  0.98078  8.0979  6.5584E-01  0.0000E+00  4.8540E-01  5.6570E-01  2.4060E-03  1.0660E-02  2.9260E-02  5.5070E-02  1.0580E-02  1.0000E-07
    1350.0000     250.0000   -1625.0000  1.34737E+02  197.059  0.00000E+00  1.00000E+00  0.98078  8.0979  6.5584E-01  0.0000E+00  4.8540E-01  5.6570E-01  2.4060E-03  1.0660E-02  2.9260E-02  5.5070E-02  1.0580E-02  1.0000E-07
    1350.0000     250.0000   -1375.0000  1.13706E+02  196.274  0.00000E+00  1.00000E+00  0.98078  8.0979  6.5584E-01  0.0000E+00  4.8540E-01  5.6570E-01  2.4060E-03  1.0660E-02  2.9260E-02  5.5070E-02  1.0580E-02  1.0000E-07
    1350.0000     250.0000   -1125.0000  9.24936E+01  187.687  0.00000E+00  1.00000E+00  0.98078  8.0979  6.5584E-01  0.0000E+00  4.8540E-01  5.6570E-01  2.4060E-03  1.0660E-02  2.9260E-02  5.5070E-02  1.0580E-02  1.0000E-07
    1350.0000     250.0000    -875.0000  7.14505E+01  132.293  0.00000E+00  1.00000E+00  0.98078  8.0979  6.5584E-01  0.0000E+00  4.8540E-01  5.6570E-01  2.4060E-03  1.0660E-02  2.9260E-02  5.5070E-02  1.0580E-02  1.0000E-07
    1350.0000     250.0000    -625.0000  5.07717E+01   94.863  0.00000E+00  1.00000E+00  0.98078  8.0979  6.5584E-01  0.0000E+00  4.8540E-01  5.6570E-01  2.4060E-03  1.0660E-02  2.9260E-02  5.5070E-02  1.0580E-02  1.0000E-07
    1350.0000     250.0000    -375.0000  2.99660E+01   63.922  0.00000E+00  1.00000E+00  0.98078  8.0979  6.5584E-01  0.0000E+00  4.8540E-01  5.6570E-01  2.4060E-03  1.0660E-02  2.9260E-02  5.5070E-02  1.0580E-02  1.0000E-07
    1350.0000     250.0000    -127.5000  9.95477E+00   37.691  0.00000E+00  1.00000E+00  0.98078  8.0979  6.5584E-01  0.0000E+00  4.8540E-01  5.6570E-01  2.4060E-03  1.0660E-02  2.9260E-02  5.5070E-02  1.0580E-02  1.0000E-07
    1350.0000     250.0000      -2.5000  2.12666E-01   25.113  0.00000E+00  1.00000E+00  0.98078  8.0979  6.5584E-01  0.0000E+00  4.8540E-01  5.6570E-01  2.4060E-03  1.0660E-02  2.9260E-02  5.5070E-02  1.0580E-02  1.0000E-07
    1350.0000     650.0000   -4875.0000  4.78042E+02  244.375  0.00000E+00  1.00000E+00  0.98475  6.4862  6.0011E-01  0.0000E+00  4.8540E-01  5.6570E-01  5.8630E-04  5.8620E-02  2.9260E-02  5.2880E-03  1.0580E-02  1.0000E-04
    1350.0000     650.0000   -4625.0000  4.36436E+02  244.673  0.00000E+00  1.00000E+00  0.98475  6.4862  6.0011E-01  0.0000E+00  4.8540E-01  5.6570E-01  5.8630E-04  5.8620E-02  2.9260E-02  5.2880E-03  1.0580E-02  1.0000E-04
    1350.0000     650.0000   -4375.0000  3.95049E+02  244.950  0.00000E+00  1.00000E+00  0.98475  6.4862  6.0011E-01  0.0000E+00  4.8540E-01  5.6570E-01  5.8630E-04  5.8620E-02  2.9260E-02  5.2880E-03  1.0580E-02  1.0000E-04
    1350.0000     650.0000   -4125.0000  3.53927E+02  245.202  0.00000E+00  1.00000E+00  0.98475  6.4862  6.0011E-01  0.0000E+00  4.8540E-01  5.6570E-01  5.8630E-04  5.8620E-02  2.9260E-02  5.2880E-03  1.0580E-02  1.0000E-04
    1350.0000     650.0000   -3875.0000  3.22812E+02  245.377  0.00000E+00  1.00000E+00  0.98078  8.0979  6.5584E-01  0.0000E+00  4.8540E-01  5.6570E-01  2.4060E-03  1.0660E-02  2.9260E-02  5.5070E-02  1.0580E-02  1.0000E-07
    1350.0000     650.0000   -3625.0000  3.01671E+02  245.487  0.00000E+00  1.00000E+00  0.98078  8.0979  6.5584E-01  0.0000E+00  4.8540E-01  5.6570E-01  2.4060E-03  1.0660E-02  2.9260E-02  5.5070E-02  1.0580E-02  1.0000E-07
    1350.0000     650.0000   -3375.0000  2.80802E+02  245.532  0.00000E+00  1.00000E+00  0.98078  8.0979  6.5584E-01  0.0000E+00  4.8540E-01  5.6570E-01  2.4060E-03  1.0660E-02  2.9260E-02  5.5070E-02  1.0580E-02  1.0000E-07
    1350.0000     650.0000   -3125.0000  2.60147E+02  244.984  0.00000E+00  1.00000E+00  0.98078  8.0979  6.5584E-01  0.0000E+00  4.8540E-01  5.6570E-01  2.4060E-03  1.0660E-02  2.9260E-02  5.5070E-02  1.0580E-02  1.0000E-07
    1350.0000     650.0000   -2875.0000  2.39605E+02  240.249  0.00000E+00  1.00000E+00  0.98078  8.0979  6.5584E-01  0.0000E+00  4.8540E-01  5.6570E-01  2.4060E-03  1.0660E-02  2.9260E-02  5.5070E-02  1.0580E-02  1.0000E-07
    1350.0000     650.0000   -2625.0000  2.18852E+02  218.863  0.00000E+00  1.00000E+00  0.98078  8.0979  6.5584E-01  0.0000E+00  4.8540E-01  5.6570E-01  2.4060E-03  1.0660E-02  2.9260E-02  5.5070E-02  1.0580E-02  1.0000E-07
    1350.0000     650.0000   -2375.0000  1.97760E+02  205.647  0.00000E+00  1.00000E+00  0.98078  8.0979  6.5584E-01  0.0000E+00  4.8540E-01  5.6570E-01  2.4060E-03  1.0660E-02  2.9260E-02  5.5070E-02  1.0580E-02  1.0000E-07
    1350.0000     650.0000   -2125.0000  1.76598E+02  205.560  0.00000E+00  1.00000E+00  0.98078  8.0979  6.5584E-01  0.0000E+00  4.8540E-01  5.6570E-01  2.4060E-03  1.0660E-02  2.9260E-02  5.5070E-02  1.0580E-02  1.0000E-07
    1350.0000     650.0000   -1875.0000  1.55554E+02  210.530  0.00000E+00  1.00000E+00  0.98078  8.0979  6.5584E-01  0.0000E+00  4.8540E-01  5.6570E-01  2.4060E-03  1.0660E-02  2.9260E-02  5.5070E-02  1.0580E-02  1.0000E-07
    1350.0000     650.0000   -1625.0000  1.34698E+02  219.610  0.00000E+00  1.00000E+00  0.98078  8.0979  6.5584E-01  0.0000E+00  4.8540E-01  5.6570E-01  2.4060E-03  1.0660E-02  2.9260E-02  5.5070E-02  1.0580E-02  1.0000E-07
    1350.0000     650.0000   -1375.0000  1.14006E+02  224.001  0.00000E+00  1.00000E+00  0.98078  8.0979  6.5584E-01  0.0000E+00  4.8540E-01  5.6570E-01  2.4060E-03  1.0660E-02  2.9260E-02  5.5070E-02  1.0580E-02  1.0000E-07
    1350.0000     650.0000   -1125.0000  9.32600E+01  214.391  0.00000E+00  1.00000E+00  0.98078  8.0979  6.5584E-01  0.0000E+00  4.8540E-01  5.6570E-01  2.4060E-03  1.0660E-02  2.9260E-02  5.5070E-02  1.0580E-02  1.0000E-07
    1350.0000     650.0000    -875.0000  7.25551E+01  165.551  0.00000E+00  1.00000E+00  0.98078  8.0979  6.5584E-01  0.0000E+00  4.8540E-01  5.6570E-01  2.4060E-03  1.0660E-02  2.9260E-02  5.5070E-02  1.0580E-02  1.0000E-07
    1350.0000     650.0000    -625.0000  5.19007E+01  130.194  0.00000E+00  1.00000E+00  0.98078  8.0979  6.5584E-01  0.0000E+00  4.8540E-01  5.6570E-01  2.4060E-03  1.0660E-02  2.9260E-02  5.5070E-02  1.0580E-02  1.0000E-07
    1350.0000     650.0000    -375.0000  3.09232E+01   94.384  0.00000E+00  1.00000E+00  0.98078  8.0979  6.5584E-01  0.0000E+00  4.8540E-01  5.6570E-01  2.4060E-03  1.0660E-02  2.9260E-02  5.5070E-02  1.0580E-02  1.0000E-07
    1350.0000     650.0000    -127.5000  1.02823E+01   51.095  0.00000E+00  1.00000E+00  0.98078  8.0979  6.5584E-01  0.0000E+00  4.8540E-01  5.6570E-01  2.4060E-03  1.0660E-02  2.9260E-02  5.5070E-02  1.0580E-02  1.0000E-07
    1350.0000     650.0000      -2.5000  2.12666E-01   25.113  0.00000E+00  1.00000E+00  0.98078  8.0979  6.5584E-01  0.0000E+00  4.8540E-01  5.6570E-01  2.4060E-03  1.0660E-02  2.9260E-02  5.5070E-02  1.0580E-02  1.0000E-07
    1350.0000     900.0000   -4875.0000  4.78042E+02  244.375  0.00000E+00  1.00000E+00  0.98475  6.4862  6.0011E-01  0.0000E+00  4.8540E-01  5.6570E-01  5.8630E-04  5.8620E-02  2.9260E-02  5.2880E-03  1.0580E-02  1.0000E-04
    1350.0000     900.0000   -4625.0000  4.36309E+02  244.674  0.00000E+00  1.00000E+00  0.98475  6.4862  6.0011E-01  0.0000E+00  4.8540E-01  5.6570E-01  5.8630E-04  5.8620E-02  2.9260E-02  5.2880E-03  1.0580E-02  1.0000E-04
    1350.0000     900.0000   -4375.0000  3.94741E+02  244.952  0.00000E+00  1.00000E+00  0.98475  6.4862  6.0011E-01  0.0000E+00  4.8540E-01  5.6570E-01  5.8630E-04  5.8620E-02  2.9260E-02  5.2880E-03  1.0580E-02  1.0000E-04
    1350.0000     900.0000   -4125.0000  3.53328E+02  245.205  0.00000E+00  1.00000E+00  0.98475  6.4862  6.0011E-01  0.0000E+00  4.8540E-01  5.6570E-01  5.8630E-04  5.8620E-02  2.9260E-02  5.2880E-03  1.0580E-02  1.0000E-04
    1350.0000     900.0000   -3875.0000  3.22019E+02  245.381  0.00000E+00  1.00000E+00  0.98078  8.0979  6.5584E-01  0.0000E+00  4.8540E-01  5.6570E-01  2.4060E-03  1.0660E-02  2.9260E-02  5.5070E-02  1.0580E-02  1.0000E-07
    1350.0000     900.0000   -3625.0000  3.00986E+02  245.489  0.00000E+00  1.00000E+00  0.98078  8.0979  6.5584E-01  0.0000E+00  4.8540E-01  5.6570E-01  2.4060E-03  1.0660E-02  2.9260E-02  5.5070E-02  1.0580E-02  1.0000E-07
    1350.0000     900.0000   -3375.0000  2.80219E+02  245.522  0.00000E+00  1.00000E+00  0.98078  8.0979  6.5584E-01  0.0000E+00  4.8540E-01  5.6570E-01  2.4060E-03  1.0660E-02  2.9260E-02  5.5070E-02  1.0580E-02  1.0000E-07
    1350.0000     900.0000   -3125.0000  2.59624E+02  244.867  0.00000E+00  1.00000E+00  0.98078  8.0979  6.5584E-01  0.0000E+00  4.8540E-01  5.6570E-01  2.4060E-03  1.0660E-02  2.9260E-02  5.5070E-02  1.0580E-02  1.0000E-07
    1350.0000     900.0000   -2875.0000  2.39109E+02  239.181  0.00000E+00  1.00000E+00  0.98078  8.0979  6.5584E-01  0.0000E+00  4.8540E-01  5.6570E-01  2.4060E-03  1.0660E-02  2.9260E-02  5.5070E-02  1.0580E-02  1.0000E-07
    1350.0000     900.0000   -2625.0000  2.18387E+02  217.803  0.00000E+00  1.00000E+00  0.98078  8.0979  6.5584E-01  0.0000E+00  4.8540E-01  5.6570E-01  2.4060E-03  1.0660E-02  2.9260E-02  5.5070E-02  1.0580E-02  1.0000E-07
    1350.0000     900.0000   -2375.0000  1.97388E+02  208.685  0.00000E+00  1.00000E+00  0.98078  8.0979  6.5584E-01  0.0000E+00  4.8540E-01  5.6570E-01  2.4060E-03  1.0660E-02  2.9260E-02  5.5070E-02  1.0580E-02  1.0000E-07
    1350.0000     900.0000   -2125.0000  1.76366E+02  211.420  0.00000E+00  1.00000E+00  0.98078  8.0979  6.5584E-01  0.0000E+00  4.8540E-01  5.6570E-01  2.4060E-03  1.0660E-02  2.9260E-02  5.5070E-02  1.0580E-02  1.0000E-07
    1350.0000     900.0000   -1875.0000  1.55477E+02  219.911  0.00000E+00  1.00000E+00  0.98078  8.0979  6.5584E-01  0.0000E+00  4.8540E-01  5.6570E-01  2.4060E-03  1.0660E-02  2.9260E-02  5.5070E-02  1.0580E-02  1.0000E-07
    1350.0000     900.0000   -1625.0000  1.34779E+02  230.172  0.00000E+00  1.00000E+00  0.98078  8.0979  6.5584E-01  0.0000E+00  4.8540E-01  5.6570E-01  2.4060E-03  1.0660E-02  2.9260E-02  5.5070E-02  1.0580E-02  1.0000E-07
    1350.0000     900.0000   -1375.0000  1.14226E+02  232.891  0.00000E+00  1.00000E+00  0.98078  8.0979  6.5584E-01  0.0000E+00  4.8540E-01  5.6570E-01  2.4060E-03  1.0660E-02  2.9260E-02  5.5070E-02  1.0580E-02  1.0000E-07
    1350.0000     900.0000   -1125.0000  9.37068E+01  228.852  0.00000E+00  1.00000E+00  0.98078  8.0979  6.5584E-01  0.0000E+00  4.8540E-01  5.6570E-01  2.4060E-03  1.0660E-02  2.9260E-02  5.5070E-02  1.0580E-02  1.0000E-07
    1350.0000     900.0000    -875.0000  7.31832E+01  196.210  0.00000E+00  1.00000E+00  0.98078  8.0979  6.5584E-01  0.0000E+00  4.8540E-01  5.6570E-01  2.4060E-03  1.0660E-02  2.9260E-02  5.5070E-02  1.0580E-02  1.0000E-07
    1350.0000     900.0000    -625.0000  5.26349E+01  169.582  0.00000E+00  1.00000E+00  0.98078  8.0979  6.5584E-01  0.0000E+00  4.8540E-01  5.6570E-01  2.4060E-03  1.0660E-02  2.9260E-02  5.5070E-02  1.0580E-02  1.0000E-07
    1350.0000     900.0000    -375.0000  3.17826E+01  136.293  0.00000E+00  1.00000E+00  0.98078  8.0979  6.5584E-01  0.0000E+00  4.8540E-01  5.6570E-01  2.4060E-03  1.0660E-02  2.9260E-02  5.5070E-02  1.0580E-02  1.0000E-07
    1350.0000     900.0000    -127.5000  1.07919E+01   76.844  0.00000E+00  1.00000E+00  0.98078  8.0979  6.5584E-01  0.0000E+00  4.8540E-01  5.6570E-01  2.4060E-03  1.0660E-02  2.9260E-02  5.5070E-02  1.0580E-02  1.0000E-07
    1350.0000     900.0000      -2.5000  2.12666E-01   25.113  0.00000E+00  1.00000E+00  0.98078  8.0979  6.5584E-01  0.0000E+00  4.8540E-01  5.6570E-01  2.4060E-03  1.0660E-02  2.9260E-02  5.5070E-02  1.0580E-02  1.0000E-07
    1350.0000    1050.0000   -4875.0000  4.78042E+02  244.375  0.00000E+00  1.00000E+00  0.98475  6.4862  6.0011E-01  0.0000E+00  4.8540E-01  5.6570E-01  5.8630E-04  5.8620E-02  2.9260E-02  5.2880E-03  1.0580E-02  1.0000E-04
    1350.0000    1050.0000   -4625.0000  4.36250E+02  244.675  0.00000E+00  1.00000E+00  0.98475  6.4862  6.0011E-01  0.0000E+00  4.8540E-01  5.6570E-01  5.8630E-04  5.8620E-02  2.9260E-02  5.2880E-03  1.0580E-02  1.0000E-04
    1350.0000    1050.0000   -4375.0000  3.94577E+02  244.953  0.00000E+00  1.00000E+00  0.98475  6.4862  6.0011E-01  0.0000E+00  4.8540E-01  5.6570E-01  5.8630E-04  5.8620E-02  2.9260E-02  5.2880E-03  1.0580E-02  1.0000E-04
    1350.0000    1050.0000   -4125.0000  3.52918E+02  245.208  0.00000E+00  1.00000E+00  0.98475  6.4862  6.0011E-01  0.0000E+00  4.8540E-01  5.6570E-01  5.8630E-04  5.8620E-02  2.9260E-02  5.2880E-03  1.0580E-02  1.0000E-04
    1350.0000    1050.0000   -3875.0000  3.21348E+02  245.385  0.00000E+00  1.00000E+00  0.98078  8.0979  6.5584E-01  0.0000E+00  4.8540E-01  5.6570E-01  2.4060E-03  1.0660E-02  2.9260E-02  5.5070E-02  1.0580E-02  1.0000E-07
    1350.0000    1050.0000   -3625.0000  3.00473E+02  245.491  0.00000E+00  1.00000E+00  0.98078  8.0979  6.5584E-01  0.0000E+00  4.8540E-01  5.6570E-01  2.4060E-03  1.0660E-02  2.9260E-02  5.5070E-02  1.0580E-02  1.0000E-07
    1350.0000    1050.0000   -3375.0000  2.79806E+02  245.515  0.00000E+00  1.00000E+00  0.98078  8.0979  6.5584E-01  0.0000E+00  4.8540E-01  5.6570E-01  2.4060E-03  1.0660E-02  2.9260E-02  5.5070E-02  1.0580E-02  1.0000E-07
    1350.0000    1050.0000   -3125.0000  2.59249E+02  244.795  0.00000E+00  1.00000E+00  0.98078  8.0979  6.5584E-01  0.0000E+00  4.8540E-01  5.6570E-01  2.4060E-03  1.0660E-02  2.9260E-02  5.5070E-02  1.0580E-02  1.0000E-07
    1350.0000    1050.0000   -2875.0000  2.38735E+02  238.387  0.00000E+00  1.00000E+00  0.98078  8.0979  6.5584E-01  0.0000E+00  4.8540E-01  5.6570E-01  2.4060E-03  1.0660E-02  2.9260E-02  5.5070E-02  1.0580E-02  1.0000E-07
    1350.0000    1050.0000   -2625.0000  2.18048E+02  217.831  0.00000E+00  1.00000E+00  0.98078  8.0979  6.5584E-01  0.0000E+00  4.8540E-01  5.6570E-01  2.4060E-03  1.0660E-02  2.9260E-02  5.5070E-02  1.0580E-02  1.0000E-07
    1350.0000    1050.0000   -2375.0000  1.97156E+02  211.634  0.00000E+00  1.00000E+00  0.98078  8.0979  6.5584E-01  0.0000E+00  4.8540E-01  5.6570E-01  2.4060E-03  1.0660E-02  2.9260E-02  5.5070E-02  1.0580E-02  1.0000E-07
    1350.0000    1050.0000   -2125.0000  1.76267E+02  217.019  0.00000E+00  1.00000E+00  0.98078  8.0979  6.5584E-01  0.0000E+00  4.8540E-01  5.6570E-01  2.4060E-03  1.0660E-02  2.9260E-02  5.5070E-02  1.0580E-02  1.0000E-07
    1350.0000    1050.0000   -1875.0000  1.55504E+02  229.405  0.00000E+00  1.00000E+00  0.98078  8.0979  6.5584E-01  0.0000E+00  4.8540E-01  5.6570E-01  2.4060E-03  1.0660E-02  2.9260E-02  5.5070E-02  1.0580E-02  1.0000E-07
    1350.0000    1050.0000   -1625.0000  1.34883E+02  234.413  0.00000E+00  1.00000E+00  0.98078  8.0979  6.5584E-01  0.0000E+00  4.8540E-01  5.6570E-01  2.4060E-03  1.0660E-02  2.9260E-02  5.5070E-02  1.0580E-02  1.0000E-07
    1350.0000    1050.0000   -1375.0000  1.14362E+02  236.418  0.00000E+00  1.00000E+00  0.98078  8.0979  6.5584E-01  0.0000E+00  4.8540E-01  5.6570E-01  2.4060E-03  1.0660E-02  2.9260E-02  5.5070E-02  1.0580E-02  1.0000E-07
    1350.0000    1050.0000   -1125.0000  9.39150E+01  235.311  0.00000E+00  1.00000E+00  0.98078  8.0979  6.5584E-01  0.0000E+00  4.8540E-01  5.6570E-01  2.4060E-03  1.0660E-02  2.9260E-02  5.5070E-02  1.0580E-02  1.0000E-07
    1350.0000    1050.0000    -875.0000  7.34354E+01  217.125  0.00000E+00  1.00000E+00  0.98078  8.0979  6.5584E-01  0.0000E+00  4.8540E-01  5.6570E-01  2.4060E-03  1.0660E-02  2.9260E-02  5.5070E-02  1.0580E-02  1.0000E-07
    1350.0000    1050.0000    -625.0000  5.29624E+01  201.319  0.00000E+00  1.00000E+00  0.98078  8.0979  6.5584E-01  0.0000E+00  4.8540E-01  5.6570E-01  2.4060E-03  1.0660E-02  2.9260E-02  5.5070E-02  1.0580E-02  1.0000E-07
    1350.0000    1050.0000    -375.0000  3.23086E+01  176.923  0.00000E+00  1.00000E+00  0.98078  8.0979  6.5584E-01  0.0000E+00  4.8540E-01  5.6570E-01  2.4060E-03  1.0660E-02  2.9260E-02  5.5070E-02  1.0580E-02  1.0000E-07
    1350.0000    1050.0000    -127.5000  1.12505E+01  111.194  0.00000E+00  1.00000E+00  0.98078  8.0979  6.5584E-01  0.0000E+00  4.8540E-01  5.6570E-01  2.4060E-03  1.0660E-02  2.9260E-02  5.5070E-02  1.0580E-02  1.0000E-07
    1350.0000    1050.0000      -2.5000  2.12666E-01   25.113  0.00000E+00  1.00000E+00  0.98078  8.0979  6.5584E-01  0.0000E+00  4.8540E-01  5.6570E-01  2.4060E-03  1.0660E-02  2.9260E-02  5.5070E-02  1.0580E-02  1.0000E-07
    1350.0000    1125.0000   -4875.0000  4.78042E+02  244.375  0.00000E+00  1.00000E+00  0.98475  6.4862  6.0011E-01  0.0000E+00  4.8540E-01  5.6570E-01  5.8630E-04  5.8620E-02  2.9260E-02  5.2880E-03  1.0580E-02  1.0000E-04
    1350.0000    1125.0000   -4625.0000  4.36230E+02  244.675  0.00000E+00  1.00000E+00  0.98475  6.4862  6.0011E-01  0.0000E+00  4.8540E-01  5.6570E-01  5.8630E-04  5.8620E-02  2.9260E-02  5.2880E-03  1.0580E-02  1.0000E-04
    1350.0000    1125.0000   -4375.0000  3.94518E+02  244.954  0.00000E+00  1.00000E+00  0.98475  6.4862  6.0011E-01  0.0000E+00  4.8540E-01  5.6570E-01  5.8630E-04  5.8620E-02  2.9260E-02  5.2880E-03  1.0580E-02  1.0000E-04
    1350.0000    1125.0000   -4125.0000  3.52732E+02  245.209  0.00000E+00  1.00000E+00  0.98475  6.4862  6.0011E-01  0.0000E+00  4.8540E-01  5.6570E-01  5.8630E-04  5.8620E-02  2.9260E-02  5.2880E-03  1.0580E-02  1.0000E-04
    1350.0000    1125.0000   -3875.0000  3.20942E+02  245.387  0.00000E+00  1.00000E+00  0.98078  8.0979  6.5584E-01  0.0000E+00  4.8540E-01  5.6570E-01  2.4060E-03  1.0660E-02  2.9260E-02  5.5070E-02  1.0580E-02  1.0000E-07
    1350.0000    1125.0000   -3625.0000  3.00199E+02  245.492  0.00000E+00  1.00000E+00  0.98078  8.0979  6.5584E-01  0.0000E+00  4.8540E-01  5.6570E-01  2.4060E-03  1.0660E-02  2.9260E-02  5.5070E-02  1.0580E-02  1.0000E-07
    1350.0000    1125.0000   -3375.0000  2.79592E+02  245.513  0.00000E+00  1.00000E+00  0.98078  8.0979  6.5584E-01  0.0000E+00  4.8540E-01  5.6570E-01  2.4060E-03  1.0660E-02  2.9260E-02  5.5070E-02  1.0580E-02  1.0000E-07
    1350.0000    1125.0000   -3125.0000  2.59049E+02  244.783  0.00000E+00  1.00000E+00  0.98078  8.0979  6.5584E-01  0.0000E+00  4.8540E-01  5.6570E-01  2.4060E-03  1.0660E-02  2.9260E-02  5.5070E-02  1.0580E-02  1.0000E-07
    1350.0000    1125.0000   -2875.0000  2.38525E+02  238.278  0.00000E+00  1.00000E+00  0.98078  8.0979  6.5584E-01  0.0000E+00  4.8540E-01  5.6570E-01  2.4060E-03  1.0660E-02  2.9260E-02  5.5070E-02  1.0580E-02  1.0000E-07
    1350.0000    1125.0000   -2625.0000  2.17862E+02  218.935  0.00000E+00  1.00000E+00  0.98078  8.0979  6.5584E-01  0.0000E+00  4.8540E-01  5.6570E-01  2.4060E-03  1.0660E-02  2.9260E-02  5.5070E-02  1.0580E-02  1.0000E-07
    1350.0000    1125.0000   -2375.0000  1.97046E+02  215.179  0.00000E+00  1.00000E+00  0.98078  8.0979  6.5584E-01  0.0000E+00  4.8540E-01  5.6570E-01  2.4060E-03  1.0660E-02  2.9260E-02  5.5070E-02  1.0580E-02  1.0000E-07
    1350.0000    1125.0000   -2125.0000  1.76242E+02  223.297  0.00000E+00  1.00000E+00  0.98078  8.0979  6.5584E-01  0.0000E+00  4.8540E-01  5.6570E-01  2.4060E-03  1.0660E-02  2.9260E-02  5.5070E-02  1.0580E-02  1.0000E-07
    1350.0000    1125.0000   -1875.0000  1.55539E+02  233.250  0.00000E+00  1.00000E+00  0.98078  8.0979  6.5584E-01  0.0000E+00  4.8540E-01  5.6570E-01  2.4060E-03  1.0660E-02  2.9260E-02  5.5070E-02  1.0580E-02  1.0000E-07
    1350.0000    1125.0000   -1625.0000  1.34943E+02  236.493  0.00000E+00  1.00000E+00  0.98078  8.0979  6.5584E-01  0.0000E+00  4.8540E-01  5.6570E-01  2.4060E-03  1.0660E-02  2.9260E-02  5.5070E-02  1.0580E-02  1.0000E-07
    1350.0000    1125.0000   -1375.0000  1.14431E+02  237.867  0.00000E+00  1.00000E+00  0.98078  8.0979  6.5584E-01  0.0000E+00  4.8540E-01  5.6570E-01  2.4060E-03  1.0660E-02  2.9260E-02  5.5070E-02  1.0580E-02  1.0000E-07
    1350.0000    1125.0000   -1125.0000  9.39969E+01  237.524  0.00000E+00  1.00000E+00  0.98078  8.0979  6.5584E-01  0.0000E+00  4.8540E-01  5.6570E-01  2.4060E-03  1.0660E-02  2.9260E-02  5.5070E-02  1.0580E-02  1.0000E-07
    1350.0000    1125.0000    -875.0000  7.35510E+01  227.309  0.00000E+00  1.00000E+00  0.98078  8.0979  6.5584E-01  0.0000E+00  4.8540E-01  5.6570E-01  2.4060E-03  1.0660E-02  2.9260E-02  5.5070E-02  1.0580E-02  1.0000E-07
    1350.0000    1125.0000    -625.0000  5.31295E+01  218.098  0.00000E+00  1.00000E+00  0.98078  8.0979  6.5584E-01  0.0000E+00  4.8540E-01  5.6570E-01  2.4060E-03  1.0660E-02  2.9260E-02  5.5070E-02  1.0580E-02  1.0000E-07
    1350.0000    1125.0000    -375.0000  3.25975E+01  201.735  0.00000E+00  1.00000E+00  0.98078  8.0979  6.5584E-01  0.0000E+00  4.8540E-01  5.6570E-01  2.4060E-03  1.0660E-02  2.9260E-02  5.5070E-02  1.0580E-02  1.0000E-07
    1350.0000    1125.0000    -127.5000  1.15457E+01  137.724  0.00000E+00  1.00000E+00  0.98078  8.0979  6.5584E-01  0.0000E+00  4.8540E-01  5.6570E-01  2.4060E-03  1.0660E-02  2.9260E-02  5.5070E-02  1.0580E-02  1.0000E-07
    1350.0000    1125.0000      -2.5000  2.12666E-01   25.113  0.00000E+00  1.00000E+00  0.98078  8.0979  6.5584E-01  0.0000E+00  4.8540E-01  5.6570E-01  2.4060E-03  1.0660E-02  2.9260E-02  5.5070E-02  1.0580E-02  1.0000E-07
    1350.0000    1165.0000   -4875.0000  4.78042E+02  244.375  0.00000E+00  1.00000E+00  0.98475  6.4862  6.0011E-01  0.0000E+00  4.8540E-01  5.6570E-01  5.8630E-04  5.8620E-02  2.9260E-02  5.2880E-03  1.0580E-02  1.0000E-04
    1350.0000    1165.0000   -4625.0000  4.36223E+02  244.675  0.00000E+00  1.00000E+00  0.98475  6.4862  6.0011E-01  0.0000E+00  4.8540E-01  5.6570E-01  5.8630E-04  5.8620E-02  2.9260E-02  5.2880E-03  1.0580E-02  1.0000E-04
    1350.0000    1165.0000   -4375.0000  3.94495E+02  244.954  0.00000E+00  1.00000E+00  0.98475  6.4862  6.0011E-01  0.0000E+00  4.8540E-01  5.6570E-01  5.8630E-04  5.8620E-02  2.9260E-02  5.2880E-03  1.0580E-02  1.0000E-04
    1350.0000    1165.0000   -4125.0000  3.52648E+02  245.209  0.00000E+00  1.00000E+00  0.98475  6.4862  6.0011E-01  0.0000E+00  4.8540E-01  5.6570E-01  5.8630E-04  5.8620E-02  2.9260E-02  5.2880E-03  1.0580E-02  1.0000E-04
    1350.0000    1165.0000   -3875.0000  3.20702E+02  245.389  0.00000E+00  1.00000E+00  0.98078  8.0979  6.5584E-01  0.0000E+00  4.8540E-01  5.6570E-01  2.4060E-03  1.0660E-02  2.9260E-02  5.5070E-02  1.0580E-02  1.0000E-07
    1350.0000    1165.0000   -3625.0000  3.00050E+02  245.493  0.00000E+00  1.00000E+00  0.98078  8.0979  6.5584E-01  0.0000E+00  4.8540E-01  5.6570E-01  2.4060E-03  1.0660E-02  2.9260E-02  5.5070E-02  1.0580E-02  1.0000E-07
    1350.0000    1165.0000   -3375.0000  2.79477E+02  245.516  0.00000E+00  1.00000E+00  0.98078  8.0979  6.5584E-01  0.0000E+00  4.8540E-01  5.6570E-01  2.4060E-03  1.0660E-02  2.9260E-02  5.5070E-02  1.0580E-02  1.0000E-07
    1350.0000    1165.0000   -3125.0000  2.58940E+02  244.833  0.00000E+00  1.00000E+00  0.98078  8.0979  6.5584E-01  0.0000E+00  4.8540E-01  5.6570E-01  2.4060E-03  1.0660E-02  2.9260E-02  5.5070E-02  1.0580E-02  1.0000E-07
    1350.0000    1165.0000   -2875.0000  2.38407E+02  238.737  0.00000E+00  1.00000E+00  0.98078  8.0979  6.5584E-01  0.0000E+00  4.8540E-01  5.6570E-01  2.4060E-03  1.0660E-02  2.9260E-02  5.5070E-02  1.0580E-02  1.0000E-07
    1350.0000    1165.0000   -2625.0000  2.17758E+02  221.307  0.00000E+00  1.00000E+00  0.98078  8.0979  6.5584E-01  0.0000E+00  4.8540E-01  5.6570E-01  2.4060E-03  1.0660E-02  2.9260E-02  5.5070E-02  1.0580E-02  1.0000E-07
    1350.0000    1165.0000   -2375.0000  1.96990E+02  219.552  0.00000E+00  1.00000E+00  0.98078  8.0979  6.5584E-01  0.0000E+00  4.8540E-01  5.6570E-01  2.4060E-03  1.0660E-02  2.9260E-02  5.5070E-02  1.0580E-02  1.0000E-07
    1350.0000    1165.0000   -2125.0000  1.76236E+02  228.288  0.00000E+00  1.00000E+00  0.98078  8.0979  6.5584E-01  0.0000E+00  4.8540E-01  5.6570E-01  2.4060E-03  1.0660E-02  2.9260E-02  5.5070E-02  1.0580E-02  1.0000E-07
    1350.0000    1165.0000   -1875.0000  1.55563E+02  235.241  0.00000E+00  1.00000E+00  0.98078  8.0979  6.5584E-01  0.0000E+00  4.8540E-01  5.6570E-01  2.4060E-03  1.0660E-02  2.9260E-02  5.5070E-02  1.0580E-02  1.0000E-07
    1350.0000    1165.0000   -1625.0000  1.34977E+02  237.519  0.00000E+00  1.00000E+00  0.98078  8.0979  6.5584E-01  0.0000E+00  4.8540E-01  5.6570E-01  2.4060E-03  1.0660E-02  2.9260E-02  5.5070E-02  1.0580E-02  1.0000E-07
    1350.0000    1165.0000   -1375.0000  1.14467E+02  238.527  0.00000E+00  1.00000E+00  0.98078  8.0979  6.5584E-01  0.0000E+00  4.8540E-01  5.6570E-01  2.4060E-03  1.0660E-02  2.9260E-02  5.5070E-02  1.0580E-02  1.0000E-07
    1350.0000    1165.0000   -1125.0000  9.40336E+01  238.472  0.00000E+00  1.00000E+00  0.98078  8.0979  6.5584E-01  0.0000E+00  4.8540E-01  5.6570E-01  2.4060E-03  1.0660E-02  2.9260E-02  5.5070E-02  1.0580E-02  1.0000E-07
    1350.0000    1165.0000    -875.0000  7.36145E+01  232.501  0.00000E+00  1.00000E+00  0.98078  8.0979  6.5584E-01  0.0000E+00  4.8540E-01  5.6570E-01  2.4060E-03  1.0660E-02  2.9260E-02  5.5070E-02  1.0580E-02  1.0000E-07
    1350.0000    1165.0000    -625.0000  5.32264E+01  226.917  0.00000E+00  1.00000E+00  0.98078  8.0979  6.5584E-01  0.0000E+00  4.8540E-01  5.6570E-01  2.4060E-03  1.0660E-02  2.9260E-02  5.5070E-02  1.0580E-02  1.0000E-07
    1350.0000    1165.0000    -375.0000  3.27608E+01  215.734  0.00000E+00  1.00000E+00  0.98078  8.0979  6.5584E-01  0.0000E+00  4.8540E-01  5.6570E-01  2.4060E-03  1.0660E-02  2.9260E-02  5.5070E-02  1.0580E-02  1.0000E-07
    1350.0000    1165.0000    -127.5000  1.17232E+01  155.240  0.00000E+00  1.00000E+00  0.98078  8.0979  6.5584E-01  0.0000E+00  4.8540E-01  5.6570E-01  2.4060E-03  1.0660E-02  2.9260E-02  5.5070E-02  1.0580E-02  1.0000E-07
    1350.0000    1165.0000      -2.5000  2.12666E-01   25.113  0.00000E+00  1.00000E+00  0.98078  8.0979  6.5584E-01  0.0000E+00  4.8540E-01  5.6570E-01  2.4060E-03  1.0660E-02  2.9260E-02  5.5070E-02  1.0580E-02  1.0000E-07
    1350.0000    1190.0000   -4875.0000  4.78042E+02  244.375  0.00000E+00  1.00000E+00  0.98475  6.4862  6.0011E-01  0.0000E+00  4.8540E-01  5.6570E-01  5.8630E-04  5.8620E-02  2.9260E-02  5.2880E-03  1.0580E-02  1.0000E-04
    1350.0000    1190.0000   -4625.0000  4.36220E+02  244.675  0.00000E+00  1.00000E+00  0.98475  6.4862  6.0011E-01  0.0000E+00  4.8540E-01  5.6570E-01  5.8630E-04  5.8620E-02  2.9260E-02  5.2880E-03  1.0580E-02  1.0000E-04
    1350.0000    1190.0000   -4375.0000  3.94485E+02  244.954  0.00000E+00  1.00000E+00  0.98475  6.4862  6.0011E-01  0.0000E+00  4.8540E-01  5.6570E-01  5.8630E-04  5.8620E-02  2.9260E-02  5.2880E-03  1.0580E-02  1.0000E-04
    1350.0000    1190.0000   -4125.0000  3.52603E+02  245.209  0.00000E+00  1.00000E+00  0.98475  6.4862  6.0011E-01  0.0000E+00  4.8540E-01  5.6570E-01  5.8630E-04  5.8620E-02  2.9260E-02  5.2880E-03  1.0580E-02  1.0000E-04
    1350.0000    1190.0000   -3875.0000  3.20542E+02  245.389  0.00000E+00  1.00000E+00  0.98078  8.0979  6.5584E-01  0.0000E+00  4.8540E-01  5.6570E-01  2.4060E-03  1.0660E-02  2.9260E-02  5.5070E-02  1.0580E-02  1.0000E-07