Title="TOUGHREACT V3.85omp : Mineral Abundances (Total or Changes) and/or Exchanged Species:            Change in volume fraction"
Variables= "X(m)"   "Y(m)"   "Z(m)"       "T(C)"   "Porosity"  "Poros_Chg" "Permx(m^2)"     "Kx/Kx0" "Permz(m^2)"     "Kz/Kz0"      "calcite"     "dolomite"
Zone T= "0.00000000E+00 sec" I=     231 J=       1 K=       1 F=Point SolutionTime= 0.00000000E+00
    1350.0000     250.0000   -4875.0000  244.375  0.01000  0.00000E+00  1.01000E-15  1.0000E+00  1.01000E-15  1.0000E+00  0.0000E+00  0.0000E+00
    1350.0000     250.0000   -4625.0000  244.672  0.00995  0.00000E+00  1.01000E-15  1.0000E+00  1.01000E-15  1.0000E+00  0.0000E+00  0.0000E+00
    1350.0000     250.0000   -4375.0000  244.948  0.00990  0.00000E+00  1.01000E-15  1.0000E+00  1.01000E-15  1.0000E+00  0.0000E+00  0.0000E+00
    1350.0000     250.0000   -4125.0000  245.198  0.00985  0.00000E+00  1.01000E-15  1.0000E+00  1.01000E-15  1.0000E+00  0.0000E+00  0.0000E+00
    1350.0000     250.0000   -3875.0000  245.373  0.19669  0.00000E+00  2.00000E-14  1.0000E+00  2.00000E-14  1.0000E+00  0.0000E+00  0.0000E+00
    1350.0000     250.0000   -3625.0000  245.484  0.19697  0.00000E+00  2.00000E-14  1.0000E+00  2.00000E-14  1.0000E+00  0.0000E+00  0.0000E+00
    1350.0000     250.0000   -3375.0000  245.538  0.19726  0.00000E+00  2.00000E-14  1.0000E+00  2.00000E-14  1.0000E+00  0.0000E+00  0.0000E+00
    1350.0000     250.0000   -3125.0000  245.062  0.19756  0.00000E+00  2.00000E-14  1.0000E+00  2.00000E-14  1.0000E+00  0.0000E+00  0.0000E+00
    1350.0000     250.0000   -2875.0000  240.648  0.19785  0.00000E+00  2.00000E-14  1.0000E+00  2.00000E-14  1.0000E+00  0.0000E+00  0.0000E+00
    1350.0000     250.0000   -2625.0000  218.992  0.19803  0.00000E+00  2.00000E-14  1.0000E+00  2.00000E-14  1.0000E+00  0.0000E+00  0.0000E+00
    1350.0000     250.0000   -2375.0000  202.000  0.19821  0.00000E+00  2.00000E-14  1.0000E+00  2.00000E-14  1.0000E+00  0.0000E+00  0.0000E+00
    1350.0000     250.0000   -2125.0000  198.272  0.19846  0.00000E+00  2.00000E-14  1.0000E+00  2.00000E-14  1.0000E+00  0.0000E+00  0.0000E+00
    1350.0000     250.0000   -1875.0000  197.512  0.19874  0.00000E+00  2.00000E-14  1.0000E+00  2.00000E-14  1.0000E+00  0.0000E+00  0.0000E+00
    1350.0000     250.0000   -1625.0000  197.059  0.19902  0.00000E+00  2.00000E-14  1.0000E+00  2.00000E-14  1.0000E+00  0.0000E+00  0.0000E+00
    1350.0000     250.0000   -1375.0000  196.274  0.19931  0.00000E+00  2.00000E-14  1.0000E+00  2.00000E-14  1.0000E+00  0.0000E+00  0.0000E+00
    1350.0000     250.0000   -1125.0000  187.687  0.19953  0.00000E+00  2.00000E-14  1.0000E+00  2.00000E-14  1.0000E+00  0.0000E+00  0.0000E+00
    1350.0000     250.0000    -875.0000  132.293  0.19949  0.00000E+00  1.00000E-15  1.0000E+00  1.00000E-15  1.0000E+00  0.0000E+00  0.0000E+00
    1350.0000     250.0000    -625.0000   94.863  0.19958  0.00000E+00  1.00000E-15  1.0000E+00  1.00000E-15  1.0000E+00  0.0000E+00  0.0000E+00
    1350.0000     250.0000    -375.0000   63.922  0.19970  0.00000E+00  1.00000E-15  1.0000E+00  1.00000E-15  1.0000E+00  0.0000E+00  0.0000E+00
    1350.0000     250.0000    -127.5000   37.691  0.19988  0.00000E+00  1.00000E-15  1.0000E+00  1.00000E-15  1.0000E+00  0.0000E+00  0.0000E+00
    1350.0000     250.0000      -2.5000   25.113  1.00000  0.00000E+00  1.00000E-10  1.0000E+00  1.00000E-10  1.0000E+00  0.0000E+00  0.0000E+00
    1350.0000     650.0000   -4875.0000  244.375  0.01000  0.00000E+00  1.01000E-15  1.0000E+00  1.01000E-15  1.0000E+00  0.0000E+00  0.0000E+00
    1350.0000     650.0000   -4625.0000  244.673  0.00995  0.00000E+00  1.01000E-15  1.0000E+00  1.01000E-15  1.0000E+00  0.0000E+00  0.0000E+00
    1350.0000     650.0000   -4375.0000  244.950  0.00990  0.00000E+00  1.01000E-15  1.0000E+00  1.01000E-15  1.0000E+00  0.0000E+00  0.0000E+00
    1350.0000     650.0000   -4125.0000  245.202  0.00985  0.00000E+00  1.01000E-15  1.0000E+00  1.01000E-15  1.0000E+00  0.0000E+00  0.0000E+00
    1350.0000     650.0000   -3875.0000  245.377  0.19665  0.00000E+00  2.00000E-14  1.0000E+00  2.00000E-14  1.0000E+00  0.0000E+00  0.0000E+00
    1350.0000     650.0000   -3625.0000  245.487  0.19693  0.00000E+00  2.00000E-14  1.0000E+00  2.00000E-14  1.0000E+00  0.0000E+00  0.0000E+00
    1350.0000     650.0000   -3375.0000  245.532  0.19722  0.00000E+00  2.00000E-14  1.0000E+00  2.00000E-14  1.0000E+00  0.0000E+00  0.0000E+00
    1350.0000     650.0000   -3125.0000  244.984  0.19753  0.00000E+00  2.00000E-14  1.0000E+00  2.00000E-14  1.0000E+00  0.0000E+00  0.0000E+00
    1350.0000     650.0000   -2875.0000  240.249  0.19782  0.00000E+00  2.00000E-14  1.0000E+00  2.00000E-14  1.0000E+00  0.0000E+00  0.0000E+00
    1350.0000     650.0000   -2625.0000  218.863  0.19800  0.00000E+00  2.00000E-14  1.0000E+00  2.00000E-14  1.0000E+00  0.0000E+00  0.0000E+00
    1350.0000     650.0000   -2375.0000  205.647  0.19820  0.00000E+00  2.00000E-14  1.0000E+00  2.00000E-14  1.0000E+00  0.0000E+00  0.0000E+00
    1350.0000     650.0000   -2125.0000  205.560  0.19848  0.00000E+00  2.00000E-14  1.0000E+00  2.00000E-14  1.0000E+00  0.0000E+00  0.0000E+00
    1350.0000     650.0000   -1875.0000  210.530  0.19880  0.00000E+00  2.00000E-14  1.0000E+00  2.00000E-14  1.0000E+00  0.0000E+00  0.0000E+00
    1350.0000     650.0000   -1625.0000  219.610  0.19915  0.00000E+00  2.00000E-14  1.0000E+00  2.00000E-14  1.0000E+00  0.0000E+00  0.0000E+00
    1350.0000     650.0000   -1375.0000  224.001  0.19949  0.00000E+00  2.00000E-14  1.0000E+00  2.00000E-14  1.0000E+00  0.0000E+00  0.0000E+00
    1350.0000     650.0000   -1125.0000  214.391  0.19974  0.00000E+00  2.00000E-14  1.0000E+00  2.00000E-14  1.0000E+00  0.0000E+00  0.0000E+00
    1350.0000     650.0000    -875.0000  165.551  0.19976  0.00000E+00  1.00000E-15  1.0000E+00  1.00000E-15  1.0000E+00  0.0000E+00  0.0000E+00
    1350.0000     650.0000    -625.0000  130.194  0.19986  0.00000E+00  1.00000E-15  1.0000E+00  1.00000E-15  1.0000E+00  0.0000E+00  0.0000E+00
    1350.0000     650.0000    -375.0000   94.384  0.19994  0.00000E+00  1.00000E-15  1.0000E+00  1.00000E-15  1.0000E+00  0.0000E+00  0.0000E+00
    1350.0000     650.0000    -127.5000   51.095  0.19998  0.00000E+00  1.00000E-15  1.0000E+00  1.00000E-15  1.0000E+00  0.0000E+00  0.0000E+00
    1350.0000     650.0000      -2.5000   25.113  1.00000  0.00000E+00  1.00000E-10  1.0000E+00  1.00000E-10  1.0000E+00  0.0000E+00  0.0000E+00
    1350.0000     900.0000   -4875.0000  244.375  0.01000  0.00000E+00  1.01000E-15  1.0000E+00  1.01000E-15  1.0000E+00  0.0000E+00  0.0000E+00
    1350.0000     900.0000   -4625.0000  244.674  0.00995  0.00000E+00  1.01000E-15  1.0000E+00  1.01000E-15  1.0000E+00  0.0000E+00  0.0000E+00
    1350.0000     900.0000   -4375.0000  244.952  0.00990  0.00000E+00  1.01000E-15  1.0000E+00  1.01000E-15  1.0000E+00  0.0000E+00  0.0000E+00
    1350.0000     900.0000   -4125.0000  245.205  0.00985  0.00000E+00  1.01000E-15  1.0000E+00  1.01000E-15  1.0000E+00  0.0000E+00  0.0000E+00
    1350.0000     900.0000   -3875.0000  245.381  0.19660  0.00000E+00  2.00000E-14  1.0000E+00  2.00000E-14  1.0000E+00  0.0000E+00  0.0000E+00
    1350.0000     900.0000   -3625.0000  245.489  0.19688  0.00000E+00  2.00000E-14  1.0000E+00  2.00000E-14  1.0000E+00  0.0000E+00  0.0000E+00
    1350.0000     900.0000   -3375.0000  245.522  0.19719  0.00000E+00  2.00000E-14  1.0000E+00  2.00000E-14  1.0000E+00  0.0000E+00  0.0000E+00
    1350.0000     900.0000   -3125.0000  244.867  0.19750  0.00000E+00  2.00000E-14  1.0000E+00  2.00000E-14  1.0000E+00  0.0000E+00  0.0000E+00
    1350.0000     900.0000   -2875.0000  239.181  0.19778  0.00000E+00  2.00000E-14  1.0000E+00  2.00000E-14  1.0000E+00  0.0000E+00  0.0000E+00
    1350.0000     900.0000   -2625.0000  217.803  0.19796  0.00000E+00  2.00000E-14  1.0000E+00  2.00000E-14  1.0000E+00  0.0000E+00  0.0000E+00
    1350.0000     900.0000   -2375.0000  208.685  0.19820  0.00000E+00  2.00000E-14  1.0000E+00  2.00000E-14  1.0000E+00  0.0000E+00  0.0000E+00
    1350.0000     900.0000   -2125.0000  211.420  0.19850  0.00000E+00  2.00000E-14  1.0000E+00  2.00000E-14  1.0000E+00  0.0000E+00  0.0000E+00
    1350.0000     900.0000   -1875.0000  219.911  0.19885  0.00000E+00  2.00000E-14  1.0000E+00  2.00000E-14  1.0000E+00  0.0000E+00  0.0000E+00
    1350.0000     900.0000   -1625.0000  230.172  0.19922  0.00000E+00  2.00000E-14  1.0000E+00  2.00000E-14  1.0000E+00  0.0000E+00  0.0000E+00
    1350.0000     900.0000   -1375.0000  232.891  0.19955  0.00000E+00  2.00000E-14  1.0000E+00  2.00000E-14  1.0000E+00  0.0000E+00  0.0000E+00
    1350.0000     900.0000   -1125.0000  228.852  0.19985  0.00000E+00  2.00000E-14  1.0000E+00  2.00000E-14  1.0000E+00  0.0000E+00  0.0000E+00
    1350.0000     900.0000    -875.0000  196.210  0.19998  0.00000E+00  1.00000E-15  1.0000E+00  1.00000E-15  1.0000E+00  0.0000E+00  0.0000E+00
    1350.0000     900.0000    -625.0000  169.582  0.20015  0.00000E+00  1.00000E-15  1.0000E+00  1.00000E-15  1.0000E+00  0.0000E+00  0.0000E+00
    1350.0000     900.0000    -375.0000  136.293  0.20025  0.00000E+00  1.00000E-15  1.0000E+00  1.00000E-15  1.0000E+00  0.0000E+00  0.0000E+00
    1350.0000     900.0000    -127.5000   76.844  0.20017  0.00000E+00  1.00000E-15  1.0000E+00  1.00000E-15  1.0000E+00  0.0000E+00  0.0000E+00
    1350.0000     900.0000      -2.5000   25.113  1.00000  0.00000E+00  1.00000E-10  1.0000E+00  1.00000E-10  1.0000E+00  0.0000E+00  0.0000E+00
    1350.0000    1050.0000   -4875.0000  244.375  0.01000  0.00000E+00  1.01000E-15  1.0000E+00  1.01000E-15  1.0000E+00  0.0000E+00  0.0000E+00
    1350.0000    1050.0000   -4625.0000  244.675  0.00995  0.00000E+00  1.01000E-15  1.0000E+00  1.01000E-15  1.0000E+00  0.0000E+00  0.0000E+00
    1350.0000    1050.0000   -4375.0000  244.953  0.00990  0.00000E+00  1.01000E-15  1.0000E+00  1.01000E-15  1.0000E+00  0.0000E+00  0.0000E+00
    1350.0000    1050.0000   -4125.0000  245.208  0.00985  0.00000E+00  1.01000E-15  1.0000E+00  1.01000E-15  1.0000E+00  0.0000E+00  0.0000E+00
    1350.0000    1050.0000   -3875.0000  245.385  0.19655  0.00000E+00  2.00000E-14  1.0000E+00  2.00000E-14  1.0000E+00  0.0000E+00  0.0000E+00
    1350.0000    1050.0000   -3625.0000  245.491  0.19685  0.00000E+00  2.00000E-14  1.0000E+00  2.00000E-14  1.0000E+00  0.0000E+00  0.0000E+00
    1350.0000    1050.0000   -3375.0000  245.515  0.19716  0.00000E+00  2.00000E-14  1.0000E+00  2.00000E-14  1.0000E+00  0.0000E+00  0.0000E+00
    1350.0000    1050.0000   -3125.0000  244.795  0.19747  0.00000E+00  2.00000E-14  1.0000E+00  2.00000E-14  1.0000E+00  0.0000E+00  0.0000E+00
    1350.0000    1050.0000   -2875.0000  238.387  0.19775  0.00000E+00  2.00000E-14  1.0000E+00  2.00000E-14  1.0000E+00  0.0000E+00  0.0000E+00
    1350.0000    1050.0000   -2625.0000  217.831  0.19794  0.00000E+00  2.00000E-14  1.0000E+00  2.00000E-14  1.0000E+00  0.0000E+00  0.0000E+00
    1350.0000    1050.0000   -2375.0000  211.634  0.19820  0.00000E+00  2.00000E-14  1.0000E+00  2.00000E-14  1.0000E+00  0.0000E+00  0.0000E+00
    1350.0000    1050.0000   -2125.0000  217.019  0.19852  0.00000E+00  2.00000E-14  1.0000E+00  2.00000E-14  1.0000E+00  0.0000E+00  0.0000E+00
    1350.0000    1050.0000   -1875.0000  229.405  0.19890  0.00000E+00  2.00000E-14  1.0000E+00  2.00000E-14  1.0000E+00  0.0000E+00  0.0000E+00
    1350.0000    1050.0000   -1625.0000  234.413  0.19924  0.00000E+00  2.00000E-14  1.0000E+00  2.00000E-14  1.0000E+00  0.0000E+00  0.0000E+00
    1350.0000    1050.0000   -1375.0000  236.418  0.19956  0.00000E+00  2.00000E-14  1.0000E+00  2.00000E-14  1.0000E+00  0.0000E+00  0.0000E+00
    1350.0000    1050.0000   -1125.0000  235.311  0.19986  0.00000E+00  2.00000E-14  1.0000E+00  2.00000E-14  1.0000E+00  0.0000E+00  0.0000E+00
    1350.0000    1050.0000    -875.0000  217.125  0.20013  0.00000E+00  1.00000E-15  1.0000E+00  1.00000E-15  1.0000E+00  0.0000E+00  0.0000E+00
    1350.0000    1050.0000    -625.0000  201.319  0.20036  0.00000E+00  1.00000E-15  1.0000E+00  1.00000E-15  1.0000E+00  0.0000E+00  0.0000E+00
    1350.0000    1050.0000    -375.0000  176.923  0.20053  0.00000E+00  1.00000E-15  1.0000E+00  1.00000E-15  1.0000E+00  0.0000E+00  0.0000E+00
    1350.0000    1050.0000    -127.5000  111.194  0.20040  0.00000E+00  1.00000E-15  1.0000E+00  1.00000E-15  1.0000E+00  0.0000E+00  0.0000E+00
    1350.0000    1050.0000      -2.5000   25.113  1.00000  0.00000E+00  1.00000E-10  1.0000E+00  1.00000E-10  1.0000E+00  0.0000E+00  0.0000E+00
    1350.0000    1125.0000   -4875.0000  244.375  0.01000  0.00000E+00  1.01000E-15  1.0000E+00  1.01000E-15  1.0000E+00  0.0000E+00  0.0000E+00
    1350.0000    1125.0000   -4625.0000  244.675  0.00995  0.00000E+00  1.01000E-15  1.0000E+00  1.01000E-15  1.0000E+00  0.0000E+00  0.0000E+00
    1350.0000    1125.0000   -4375.0000  244.954  0.00990  0.00000E+00  1.01000E-15  1.0000E+00  1.01000E-15  1.0000E+00  0.0000E+00  0.0000E+00
    1350.0000    1125.0000   -4125.0000  245.209  0.00985  0.00000E+00  1.01000E-15  1.0000E+00  1.01000E-15  1.0000E+00  0.0000E+00  0.0000E+00
    1350.0000    1125.0000   -3875.0000  245.387  0.19653  0.00000E+00  2.00000E-14  1.0000E+00  2.00000E-14  1.0000E+00  0.0000E+00  0.0000E+00
    1350.0000    1125.0000   -3625.0000  245.492  0.19683  0.00000E+00  2.00000E-14  1.0000E+00  2.00000E-14  1.0000E+00  0.0000E+00  0.0000E+00
    1350.0000    1125.0000   -3375.0000  245.513  0.19714  0.00000E+00  2.00000E-14  1.0000E+00  2.00000E-14  1.0000E+00  0.0000E+00  0.0000E+00
    1350.0000    1125.0000   -3125.0000  244.783  0.19746  0.00000E+00  2.00000E-14  1.0000E+00  2.00000E-14  1.0000E+00  0.0000E+00  0.0000E+00
    1350.0000    1125.0000   -2875.0000  238.278  0.19774  0.00000E+00  2.00000E-14  1.0000E+00  2.00000E-14  1.0000E+00  0.0000E+00  0.0000E+00
    1350.0000    1125.0000   -2625.0000  218.935  0.19793  0.00000E+00  2.00000E-14  1.0000E+00  2.00000E-14  1.0000E+00  0.0000E+00  0.0000E+00
    1350.0000    1125.0000   -2375.0000  215.179  0.19821  0.00000E+00  2.00000E-14  1.0000E+00  2.00000E-14  1.0000E+00  0.0000E+00  0.0000E+00
    1350.0000    1125.0000   -2125.0000  223.297  0.19855  0.00000E+00  2.00000E-14  1.0000E+00  2.00000E-14  1.0000E+00  0.0000E+00  0.0000E+00
    1350.0000    1125.0000   -1875.0000  233.250  0.19891  0.00000E+00  2.00000E-14  1.0000E+00  2.00000E-14  1.0000E+00  0.0000E+00  0.0000E+00
    1350.0000    1125.0000   -1625.0000  236.493  0.19924  0.00000E+00  2.00000E-14  1.0000E+00  2.00000E-14  1.0000E+00  0.0000E+00  0.0000E+00
    1350.0000    1125.0000   -1375.0000  237.867  0.19954  0.00000E+00  2.00000E-14  1.0000E+00  2.00000E-14  1.0000E+00  0.0000E+00  0.0000E+00
    1350.0000    1125.0000   -1125.0000  237.524  0.19983  0.00000E+00  2.00000E-14  1.0000E+00  2.00000E-14  1.0000E+00  0.0000E+00  0.0000E+00
    1350.0000    1125.0000    -875.0000  227.309  0.20018  0.00000E+00  1.00000E-15  1.0000E+00  1.00000E-15  1.0000E+00  0.0000E+00  0.0000E+00
    1350.0000    1125.0000    -625.0000  218.098  0.20045  0.00000E+00  1.00000E-15  1.0000E+00  1.00000E-15  1.0000E+00  0.0000E+00  0.0000E+00
    1350.0000    1125.0000    -375.0000  201.735  0.20066  0.00000E+00  1.00000E-15  1.0000E+00  1.00000E-15  1.0000E+00  0.0000E+00  0.0000E+00
    1350.0000    1125.0000    -127.5000  137.724  0.20056  0.00000E+00  1.00000E-15  1.0000E+00  1.00000E-15  1.0000E+00  0.0000E+00  0.0000E+00
    1350.0000    1125.0000      -2.5000   25.113  1.00000  0.00000E+00  1.00000E-10  1.0000E+00  1.00000E-10  1.0000E+00  0.0000E+00  0.0000E+00
    1350.0000    1165.0000   -4875.0000  244.375  0.01000  0.00000E+00  1.01000E-15  1.0000E+00  1.01000E-15  1.0000E+00  0.0000E+00  0.0000E+00
    1350.0000    1165.0000   -4625.0000  244.675  0.00995  0.00000E+00  1.01000E-15  1.0000E+00  1.01000E-15  1.0000E+00  0.0000E+00  0.0000E+00
    1350.0000    1165.0000   -4375.0000  244.954  0.00990  0.00000E+00  1.01000E-15  1.0000E+00  1.01000E-15  1.0000E+00  0.0000E+00  0.0000E+00
    1350.0000    1165.0000   -4125.0000  245.209  0.00985  0.00000E+00  1.01000E-15  1.0000E+00  1.01000E-15  1.0000E+00  0.0000E+00  0.0000E+00
    1350.0000    1165.0000   -3875.0000  245.389  0.19651  0.00000E+00  2.00000E-14  1.0000E+00  2.00000E-14  1.0000E+00  0.0000E+00  0.0000E+00
    1350.0000    1165.0000   -3625.0000  245.493  0.19682  0.00000E+00  2.00000E-14  1.0000E+00  2.00000E-14  1.0000E+00  0.0000E+00  0.0000E+00
    1350.0000    1165.0000   -3375.0000  245.516  0.19714  0.00000E+00  2.00000E-14  1.0000E+00  2.00000E-14  1.0000E+00  0.0000E+00  0.0000E+00
    1350.0000    1165.0000   -3125.0000  244.833  0.19745  0.00000E+00  2.00000E-14  1.0000E+00  2.00000E-14  1.0000E+00  0.0000E+00  0.0000E+00
    1350.0000    1165.0000   -2875.0000  238.737  0.19773  0.00000E+00  2.00000E-14  1.0000E+00  2.00000E-14  1.0000E+00  0.0000E+00  0.0000E+00
    1350.0000    1165.0000   -2625.0000  221.307  0.19794  0.00000E+00  2.00000E-14  1.0000E+00  2.00000E-14  1.0000E+00  0.0000E+00  0.0000E+00
    1350.0000    1165.0000   -2375.0000  219.552  0.19823  0.00000E+00  2.00000E-14  1.0000E+00  2.00000E-14  1.0000E+00  0.0000E+00  0.0000E+00
    1350.0000    1165.0000   -2125.0000  228.288  0.19858  0.00000E+00  2.00000E-14  1.0000E+00  2.00000E-14  1.0000E+00  0.0000E+00  0.0000E+00
    1350.0000    1165.0000   -1875.0000  235.241  0.19892  0.00000E+00  2.00000E-14  1.0000E+00  2.00000E-14  1.0000E+00  0.0000E+00  0.0000E+00
    1350.0000    1165.0000   -1625.0000  237.519  0.19923  0.00000E+00  2.00000E-14  1.0000E+00  2.00000E-14  1.0000E+00  0.0000E+00  0.0000E+00
    1350.0000    1165.0000   -1375.0000  238.527  0.19952  0.00000E+00  2.00000E-14  1.0000E+00  2.00000E-14  1.0000E+00  0.0000E+00  0.0000E+00
    1350.0000    1165.0000   -1125.0000  238.472  0.19978  0.00000E+00  2.00000E-14  1.0000E+00  2.00000E-14  1.0000E+00  0.0000E+00  0.0000E+00
    1350.0000    1165.0000    -875.0000  232.501  0.20016  0.00000E+00  1.00000E-15  1.0000E+00  1.00000E-15  1.0000E+00  0.0000E+00  0.0000E+00
    1350.0000    1165.0000    -625.0000  226.917  0.20042  0.00000E+00  1.00000E-15  1.0000E+00  1.00000E-15  1.0000E+00  0.0000E+00  0.0000E+00
    1350.0000    1165.0000    -375.0000  215.734  0.20062  0.00000E+00  1.00000E-15  1.0000E+00  1.00000E-15  1.0000E+00  0.0000E+00  0.0000E+00
    1350.0000    1165.0000    -127.5000  155.240  0.20050  0.00000E+00  1.00000E-15  1.0000E+00  1.00000E-15  1.0000E+00  0.0000E+00  0.0000E+00
    1350.0000    1165.0000      -2.5000   25.113  1.00000  0.00000E+00  1.00000E-10  1.0000E+00  1.00000E-10  1.0000E+00  0.0000E+00  0.0000E+00
    1350.0000    1190.0000   -4875.0000  244.375  0.01000  0.00000E+00  1.01000E-15  1.0000E+00  1.01000E-15  1.0000E+00  0.0000E+00  0.0000E+00
    1350.0000    1190.0000   -4625.0000  244.675  0.00995  0.00000E+00  1.01000E-15  1.0000E+00  1.01000E-15  1.0000E+00  0.0000E+00  0.0000E+00
    1350.0000    1190.0000   -4375.0000  244.954  0.00990  0.00000E+00  1.01000E-15  1.0000E+00  1.01000E-15  1.0000E+00  0.0000E+00  0.0000E+00
    1350.0000    1190.0000   -4125.0000  245.209  0.00985  0.00000E+00  1.01000E-15  1.0000E+00  1.01000E-15  1.0000E+00  0.0000E+00  0.0000E+00
    1350.0000    1190.0000   -3875.0000  245.389  0.19650  0.00000E+00  2.00000E-14  1.0000E+00  2.00000E-14  1.0000E+00  0.0000E+00  0.0000E+00
    1350.0000    1190.0000   -3625.0000  245.494  0.19682  0.00000E+00  2.00000E-14  1.0000E+00  2.00000E-14  1.0000E+00  0.0000E+00  0.0000E+00
    1350.0000    1190.0000   -3375.0000  245.527  0.19713  0.00000E+00  2.00000E-14  1.0000E+00  2.00000E-14  1.0000E+00  0.0000E+00  0.0000E+00
    1350.0000    1190.0000   -3125.0000  244.955  0.19745  0.00000E+00  2.00000E-14  1.0000E+00  2.00000E-14  1.0000E+00  0.0000E+00  0.0000E+00
    1350.0000    1190.0000   -2875.0000  239.748  0.19773  0.00000E+00  2.00000E-14  1.0000E+00  2.00000E-14  1.0000E+00  0.0000E+00  0.0000E+00
    1350.0000    1190.0000   -2625.0000  225.223  0.19796  0.00000E+00  2.00000E-14  1.0000E+00  2.00000E-14  1.0000E+00  0.0000E+00  0.0000E+00
    1350.0000    1190.0000   -2375.0000  224.629  0.19825  0.00000E+00  2.00000E-14  1.0000E+00  2.00000E-14  1.0000E+00  0.0000E+00  0.0000E+00
    1350.0000    1190.0000   -2125.0000  231.918  0.19860  0.00000E+00  2.00000E-14  1.0000E+00  2.00000E-14  1.0000E+00  0.0000E+00  0.0000E+00
    1350.0000    1190.0000   -1875.0000  236.467  0.19892  0.00000E+00  2.00000E-14  1.0000E+00  2.00000E-14  1.0000E+00  0.0000E+00  0.0000E+00
    1350.0000    1190.0000   -1625.0000  238.103  0.19922  0.00000E+00  2.00000E-14  1.0000E+00  2.00000E-14  1.0000E+00  0.0000E+00  0.0000E+00
    1350.0000    1190.0000   -1375.0000  238.889  0.19950  0.00000E+00  2.00000E-14  1.0000E+00  2.00000E-14  1.0000E+00  0.0000E+00  0.0000E+00
    1350.0000    1190.0000   -1125.0000  238.993  0.19974  0.00000E+00  2.00000E-14  1.0000E+00  2.00000E-14  1.0000E+00  0.0000E+00  0.0000E+00
    1350.0000    1190.0000    -875.0000  235.661  0.20006  0.00000E+00  1.00000E-15  1.0000E+00  1.00000E-15  1.0000E+00  0.0000E+00  0.0000E+00
    1350.0000    1190.0000    -625.0000  232.312  0.20024  0.00000E+00  1.00000E-15  1.0000E+00  1.00000E-15  1.0000E+00  0.0000E+00  0.0000E+00
    1350.0000    1190.0000    -375.0000  224.600  0.20034  0.00000E+00  1.00000E-15  1.0000E+00  1.00000E-15  1.0000E+00  0.0000E+00  0.0000E+00
    1350.0000    1190.0000    -127.5000  167.614  0.20016  0.00000E+00  1.00000E-15  1.0000E+00  1.00000E-15  1.0000E+00  0.0000E+00  0.0000E+00
    1350.0000    1190.0000      -2.5000   25.113  1.00000  0.00000E+00  1.00000E-10  1.0000E+00  1.00000E-10  1.0000E+00  0.0000E+00  0.0000E+00
    1350.0000    1205.0000   -4875.0000  244.375  0.01000  0.00000E+00  1.01000E-15  1.0000E+00  1.01000E-15  1.0000E+00  0.0000E+00  0.0000E+00
    1350.0000    1205.0000   -4625.0000  244.675  0.00995  0.00000E+00  1.01000E-15  1.0000E+00  1.01000E-15  1.0000E+00  0.0000E+00  0.0000E+00
    1350.0000    1205.0000   -4375.0000  244.954  0.00990  0.00000E+00  1.01000E-15  1.0000E+00  1.01000E-15  1.0000E+00  0.0000E+00  0.0000E+00
    1350.0000    1205.0000   -4125.0000  245.209  0.00985  0.00000E+00  1.01000E-15  1.0000E+00  1.01000E-15  1.0000E+00  0.0000E+00  0.0000E+00
    1350.0000    1205.0000   -3875.0000  245.390  0.19650  0.00000E+00  2.00000E-14  1.0000E+00  2.00000E-14  1.0000E+00  0.0000E+00  0.0000E+00
    1350.0000    1205.0000   -3625.0000  245.495  0.19681  0.00000E+00  2.00000E-14  1.0000E+00  2.00000E-14  1.0000E+00  0.0000E+00  0.0000E+00
    1350.0000    1205.0000   -3375.0000  245.543  0.19713  0.00000E+00  2.00000E-14  1.0000E+00  2.00000E-14  1.0000E+00  0.0000E+00  0.0000E+00
    1350.0000    1205.0000   -3125.0000  245.129  0.19744  0.00000E+00  2.00000E-14  1.0000E+00  2.00000E-14  1.0000E+00  0.0000E+00  0.0000E+00
    1350.0000    1205.0000   -2875.0000  241.143  0.19774  0.00000E+00  2.00000E-14  1.0000E+00  2.00000E-14  1.0000E+00  0.0000E+00  0.0000E+00
    1350.0000    1205.0000   -2625.0000  230.095  0.19798  0.00000E+00  2.00000E-14  1.0000E+00  2.00000E-14  1.0000E+00  0.0000E+00  0.0000E+00
    1350.0000    1205.0000   -2375.0000  229.345  0.19828  0.00000E+00  2.00000E-14  1.0000E+00  2.00000E-14  1.0000E+00  0.0000E+00  0.0000E+00
    1350.0000    1205.0000   -2125.0000  234.259  0.19861  0.00000E+00  2.00000E-14  1.0000E+00  2.00000E-14  1.0000E+00  0.0000E+00  0.0000E+00
    1350.0000    1205.0000   -1875.0000  237.188  0.19892  0.00000E+00  2.00000E-14  1.0000E+00  2.00000E-14  1.0000E+00  0.0000E+00  0.0000E+00
    1350.0000    1205.0000   -1625.0000  238.431  0.19922  0.00000E+00  2.00000E-14  1.0000E+00  2.00000E-14  1.0000E+00  0.0000E+00  0.0000E+00
    1350.0000    1205.0000   -1375.0000  239.088  0.19949  0.00000E+00  2.00000E-14  1.0000E+00  2.00000E-14  1.0000E+00  0.0000E+00  0.0000E+00
    1350.0000    1205.0000   -1125.0000  239.286  0.19971  0.00000E+00  2.00000E-14  1.0000E+00  2.00000E-14  1.0000E+00  0.0000E+00  0.0000E+00
    1350.0000    1205.0000    -875.0000  237.533  0.19989  0.00000E+00  1.00000E-15  1.0000E+00  1.00000E-15  1.0000E+00  0.0000E+00  0.0000E+00
    1350.0000    1205.0000    -625.0000  235.505  0.19993  0.00000E+00  1.00000E-15  1.0000E+00  1.00000E-15  1.0000E+00  0.0000E+00  0.0000E+00
    1350.0000    1205.0000    -375.0000  229.998  0.19979  0.00000E+00  1.00000E-15  1.0000E+00  1.00000E-15  1.0000E+00  0.0000E+00  0.0000E+00
    1350.0000    1205.0000    -127.5000  175.674  0.19942  0.00000E+00  1.00000E-15  1.0000E+00  1.00000E-15  1.0000E+00  0.0000E+00  0.0000E+00
    1350.0000    1205.0000      -2.5000   25.113  1.00000  0.00000E+00  1.00000E-10  1.0000E+00  1.00000E-10  1.0000E+00  0.0000E+00  0.0000E+00
    1350.0000    1215.0000   -4875.0000  244.375  0.01000  0.00000E+00  1.01000E-15  1.0000E+00  1.01000E-15  1.0000E+00  0.0000E+00  0.0000E+00
    1350.0000    1215.0000   -4625.0000  244.675  0.00995  0.00000E+00  1.01000E-15  1.0000E+00  1.01000E-15  1.0000E+00  0.0000E+00  0.0000E+00
    1350.0000    1215.0000   -4375.0000  244.954  0.00990  0.00000E+00  1.01000E-15  1.0000E+00  1.01000E-15  1.0000E+00  0.0000E+00  0.0000E+00
    1350.0000    1215.0000   -4125.0000  245.209  0.00985  0.00000E+00  1.01000E-15  1.0000E+00  1.01000E-15  1.0000E+00  0.0000E+00  0.0000E+00
    1350.0000    1215.0000   -3875.0000  245.390  0.20239  0.00000E+00  2.00000E-12  1.0000E+00  2.00000E-12  1.0000E+00  0.0000E+00  0.0000E+00
    1350.0000    1215.0000   -3625.0000  245.496  0.20272  0.00000E+00  2.00000E-12  1.0000E+00  2.00000E-12  1.0000E+00  0.0000E+00  0.0000E+00
    1350.0000    1215.0000   -3375.0000  245.564  0.20304  0.00000E+00  2.00000E-12  1.0000E+00  2.00000E-12  1.0000E+00  0.0000E+00  0.0000E+00
    1350.0000    1215.0000   -3125.0000  245.347  0.20337  0.00000E+00  2.00000E-12  1.0000E+00  2.00000E-12  1.0000E+00  0.0000E+00  0.0000E+00
    1350.0000    1215.0000   -2875.0000  242.934  0.20368  0.00000E+00  2.00000E-12  1.0000E+00  2.00000E-12  1.0000E+00  0.0000E+00  0.0000E+00
    1350.0000    1215.0000   -2625.0000  235.805  0.20395  0.00000E+00  2.00000E-12  1.0000E+00  2.00000E-12  1.0000E+00  0.0000E+00  0.0000E+00
    1350.0000    1215.0000   -2375.0000  233.755  0.20425  0.00000E+00  2.00000E-12  1.0000E+00  2.00000E-12  1.0000E+00  0.0000E+00  0.0000E+00
    1350.0000    1215.0000   -2125.0000  235.965  0.20458  0.00000E+00  2.00000E-12  1.0000E+00  2.00000E-12  1.0000E+00  0.0000E+00  0.0000E+00
    1350.0000    1215.0000   -1875.0000  237.669  0.20489  0.00000E+00  2.00000E-12  1.0000E+00  2.00000E-12  1.0000E+00  0.0000E+00  0.0000E+00
    1350.0000    1215.0000   -1625.0000  238.644  0.20519  0.00000E+00  2.00000E-12  1.0000E+00  2.00000E-12  1.0000E+00  0.0000E+00  0.0000E+00
    1350.0000    1215.0000   -1375.0000  239.216  0.20546  0.00000E+00  2.00000E-12  1.0000E+00  2.00000E-12  1.0000E+00  0.0000E+00  0.0000E+00
    1350.0000    1215.0000   -1125.0000  239.481  0.20569  0.00000E+00  2.00000E-12  1.0000E+00  2.00000E-12  1.0000E+00  0.0000E+00  0.0000E+00
    1350.0000    1215.0000    -875.0000  238.848  0.20578  0.00000E+00  2.00000E-12  1.0000E+00  2.00000E-12  1.0000E+00  0.0000E+00  0.0000E+00
    1350.0000    1215.0000    -625.0000  237.737  0.20571  0.00000E+00  2.00000E-12  1.0000E+00  2.00000E-12  1.0000E+00  0.0000E+00  0.0000E+00
    1350.0000    1215.0000    -375.0000  233.635  0.20530  0.00000E+00  2.00000E-12  1.0000E+00  2.00000E-12  1.0000E+00  0.0000E+00  0.0000E+00
    1350.0000    1215.0000    -127.5000  179.583  0.20399  0.00000E+00  2.00000E-12  1.0000E+00  2.00000E-12  1.0000E+00  0.0000E+00  0.0000E+00
    1350.0000    1215.0000      -2.5000   25.113  1.00000  0.00000E+00  1.00000E-10  1.0000E+00  1.00000E-10  1.0000E+00  0.0000E+00  0.0000E+00
    1350.0000    1230.0000   -4875.0000  244.375  0.01000  0.00000E+00  1.01000E-15  1.0000E+00  1.01000E-15  1.0000E+00  0.0000E+00  0.0000E+00
    1350.0000    1230.0000   -4625.0000  244.675  0.00995  0.00000E+00  1.01000E-15  1.0000E+00  1.01000E-15  1.0000E+00  0.0000E+00  0.0000E+00
    1350.0000    1230.0000   -4375.0000  244.954  0.00990  0.00000E+00  1.01000E-15  1.0000E+00  1.01000E-15  1.0000E+00  0.0000E+00  0.0000E+00
    1350.0000    1230.0000   -4125.0000  245.210  0.00985  0.00000E+00  1.01000E-15  1.0000E+00  1.01000E-15  1.0000E+00  0.0000E+00  0.0000E+00
    1350.0000    1230.0000   -3875.0000  245.390  0.20239  0.00000E+00  2.00000E-12  1.0000E+00  2.00000E-12  1.0000E+00  0.0000E+00  0.0000E+00
    1350.0000    1230.0000   -3625.0000  245.498  0.20272  0.00000E+00  2.00000E-12  1.0000E+00  2.00000E-12  1.0000E+00  0.0000E+00  0.0000E+00
    1350.0000    1230.0000   -3375.0000  245.585  0.20304  0.00000E+00  2.00000E-12  1.0000E+00  2.00000E-12  1.0000E+00  0.0000E+00  0.0000E+00
    1350.0000    1230.0000   -3125.0000  245.548  0.20337  0.00000E+00  2.00000E-12  1.0000E+00  2.00000E-12  1.0000E+00  0.0000E+00  0.0000E+00
    1350.0000    1230.0000   -2875.0000  244.562  0.20369  0.00000E+00  2.00000E-12  1.0000E+00  2.00000E-12  1.0000E+00  0.0000E+00  0.0000E+00
    1350.0000    1230.0000   -2625.0000  241.763  0.20399  0.00000E+00  2.00000E-12  1.0000E+00  2.00000E-12  1.0000E+00  0.0000E+00  0.0000E+00
    1350.0000    1230.0000   -2375.0000  240.380  0.20429  0.00000E+00  2.00000E-12  1.0000E+00  2.00000E-12  1.0000E+00  0.0000E+00  0.0000E+00
    1350.0000    1230.0000   -2125.0000  239.994  0.20460  0.00000E+00  2.00000E-12  1.0000E+00  2.00000E-12  1.0000E+00  0.0000E+00  0.0000E+00
    1350.0000    1230.0000   -1875.0000  239.919  0.20490  0.00000E+00  2.00000E-12  1.0000E+00  2.00000E-12  1.0000E+00  0.0000E+00  0.0000E+00
    1350.0000    1230.0000   -1625.0000  239.947  0.20520  0.00000E+00  2.00000E-12  1.0000E+00  2.00000E-12  1.0000E+00  0.0000E+00  0.0000E+00
    1350.0000    1230.0000   -1375.0000  240.002  0.20547  0.00000E+00  2.00000E-12  1.0000E+00  2.00000E-12  1.0000E+00  0.0000E+00  0.0000E+00